
--- Loading NBD Geometry ---
#INFO: **** input file is /global/scratch/users/vaibhavvaiyakarnam/bdp_tddft/nbd_optimize.py ****
import sys
from pyscf import gto, scf
# Using geomeTRIC, which is the modern standard optimizer for PySCF
from pyscf.geomopt.geometric_solver import optimize

# ==========================================
# 1. MOLECULE SETUP
# ==========================================
print("\n--- Loading NBD Geometry ---")
mol = gto.Mole()
mol.verbose = 4

# PySCF can read the coordinates directly from your external XYZ file
mol.atom = 'nbd_init.xyz'
mol.basis = 'cc-pVDZ'
mol.build()

# ==========================================
# 2. GROUND STATE SCF SETUP
# ==========================================
print("\n--- Setting up Ground State SCF ---")
mf = scf.RKS(mol).density_fit() 
mf.xc = 'b3lyp'

# ==========================================
# 3. GEOMETRY OPTIMIZATION
# ==========================================
print("\n--- Starting Geometry Optimization ---")
# The optimizer will repeatedly solve the SCF, calculate gradients, 
# and move the atoms until they reach the lowest energy resting state.
mol_eq = optimize(mf)

# ==========================================
# 4. SAVE FINAL GEOMETRY
# ==========================================
print("\n--- Optimization Complete ---")
# Write the newly optimized coordinates out to a new file so you can use them!
mol_eq.tofile('nbd_opt.xyz')
print("Optimized coordinates successfully saved to 'nbd_opt.xyz'")#INFO: ******************** input file end ********************


System: uname_result(system='Linux', node='n0041.mhg0', release='4.18.0-553.58.1.el8_10.x86_64', version='#1 SMP Thu Jun 26 15:50:39 UTC 2025', machine='x86_64')  Threads 8
Python 3.10.20 (main, Mar 11 2026, 17:46:40) [GCC 14.3.0]
numpy 2.2.6  scipy 1.15.3  h5py 3.16.0
Date: Sat May  2 14:06:17 2026
PySCF version 2.13.0
PySCF path  /global/home/users/vaibhavvaiyakarnam/.local/lib/python3.10/site-packages/pyscf

[CONFIG] conf_file None
[INPUT] verbose = 4
[INPUT] num. atoms = 17
[INPUT] num. electrons = 92
[INPUT] charge = 0
[INPUT] spin (= nelec alpha-beta = 2S) = 0
[INPUT] symmetry False subgroup None
[INPUT] Mole.unit = angstrom
[INPUT] Symbol           X                Y                Z      unit          X                Y                Z       unit  Magmom
[INPUT]  1 C     -3.057770000000   1.478570000000   0.069750000000 AA   -5.778347851911   2.794092355998   0.131808397188 Bohr   0.0
[INPUT]  2 C     -3.109820000000   0.065000000000   0.101230000000 AA   -5.876708096695   0.122832198097   0.191296975590 Bohr   0.0
[INPUT]  3 C     -1.814380000000   2.160990000000   0.058470000000 AA   -3.428681285888   4.083679257924   0.110492286503 Bohr   0.0
[INPUT]  4 C     -0.662930000000   1.361370000000   0.080010000000 AA   -1.252756139758   2.572616454199   0.151196987226 Bohr   0.0
[INPUT]  5 C     -1.922770000000  -0.696050000000   0.122030000000 AA   -3.633508700530  -1.315343869004   0.230603278981 Bohr   0.0
[INPUT]  6 C     -0.717490000000   0.004410000000   0.110170000000 AA   -1.355859597114   0.008333692209   0.208191127143 Bohr   0.0
[INPUT]  7 N     -1.746590000000   3.586190000000   0.026850000000 AA   -3.300576751904   6.776916930654   0.050739146445 Bohr   0.0
[INPUT]  8 N     -1.958300000000  -2.111410000000   0.153610000000 AA   -3.700650669736  -3.989986636668   0.290280829994 Bohr   0.0
[INPUT]  9 N      0.629690000000   1.723010000000   0.076040000000 AA    1.189941643377   3.256017009887   0.143694774512 Bohr   0.0
[INPUT] 10 N      0.537680000000  -0.468020000000   0.124720000000 AA    1.016067942656  -0.884429620819   0.235686642256 Bohr   0.0
[INPUT] 11 O      1.298350000000   0.597370000000   0.103320000000 AA    2.453525913829   1.128865695031   0.195246503190 Bohr   0.0
[INPUT] 12 O     -2.746990000000   4.238130000000   0.008760000000 AA   -5.191058766919   8.008904980303   0.016554000851 Bohr   0.0
[INPUT] 13 O     -0.583550000000   4.202010000000   0.017290000000 AA   -1.102749679990   7.940648072684   0.032673364694 Bohr   0.0
[INPUT] 14 H     -3.987420000000   2.032800000000   0.054390000000 AA   -7.535131743613   3.841435266016   0.102782203915 Bohr   0.0
[INPUT] 15 H     -4.072290000000  -0.430770000000   0.109270000000 AA   -7.695512799805  -0.814037322679   0.206490373631 Bohr   0.0
[INPUT] 16 H     -2.858670000000  -2.612450000000   0.162220000000 AA   -5.402103380510  -4.936815014120   0.306551371927 Bohr   0.0
[INPUT] 17 H     -1.086360000000  -2.660180000000   0.168450000000 AA   -2.052922872683  -5.027011642045   0.318324365683 Bohr   0.0

nuclear repulsion = 773.728043295995
number of shells = 77
number of NR pGTOs = 366
number of NR cGTOs = 202
basis = cc-pVDZ
ecp = {}
CPU time:         2.79

--- Setting up Ground State SCF ---

--- Starting Geometry Optimization ---
Create scanner for <class 'pyscf.df.grad.rks.Gradients'>
Create scanner for <class 'pyscf.df.df_jk.DFRKS'>

Geometry optimization cycle 1
Cartesian coordinates (Angstrom)
 Atom        New coordinates             dX        dY        dZ
   C  -3.057770   1.478570   0.069750    0.000000  0.000000  0.000000
   C  -3.109820   0.065000   0.101230    0.000000  0.000000  0.000000
   C  -1.814380   2.160990   0.058470    0.000000  0.000000  0.000000
   C  -0.662930   1.361370   0.080010    0.000000  0.000000  0.000000
   C  -1.922770  -0.696050   0.122030    0.000000  0.000000  0.000000
   C  -0.717490   0.004410   0.110170    0.000000 -0.000000  0.000000
   N  -1.746590   3.586190   0.026850    0.000000  0.000000 -0.000000
   N  -1.958300  -2.111410   0.153610    0.000000  0.000000  0.000000
   N   0.629690   1.723010   0.076040    0.000000  0.000000  0.000000
   N   0.537680  -0.468020   0.124720    0.000000  0.000000  0.000000
   O   1.298350   0.597370   0.103320    0.000000  0.000000  0.000000
   O  -2.746990   4.238130   0.008760    0.000000  0.000000  0.000000
   O  -0.583550   4.202010   0.017290    0.000000  0.000000  0.000000
   H  -3.987420   2.032800   0.054390    0.000000  0.000000  0.000000
   H  -4.072290  -0.430770   0.109270    0.000000  0.000000  0.000000
   H  -2.858670  -2.612450   0.162220    0.000000  0.000000 -0.000000
   H  -1.086360  -2.660180   0.168450    0.000000  0.000000  0.000000

WARN: Mole.unit (angstrom) is changed to Bohr

New geometry
   1 C     -3.057770000000   1.478570000000   0.069750000000 AA   -5.778347851911   2.794092355998   0.131808397188 Bohr
   2 C     -3.109820000000   0.065000000000   0.101230000000 AA   -5.876708096695   0.122832198097   0.191296975590 Bohr
   3 C     -1.814380000000   2.160990000000   0.058470000000 AA   -3.428681285888   4.083679257924   0.110492286503 Bohr
   4 C     -0.662930000000   1.361370000000   0.080010000000 AA   -1.252756139758   2.572616454199   0.151196987226 Bohr
   5 C     -1.922770000000  -0.696050000000   0.122030000000 AA   -3.633508700530  -1.315343869004   0.230603278981 Bohr
   6 C     -0.717490000000   0.004410000000   0.110170000000 AA   -1.355859597114   0.008333692209   0.208191127143 Bohr
   7 N     -1.746590000000   3.586190000000   0.026850000000 AA   -3.300576751904   6.776916930654   0.050739146445 Bohr
   8 N     -1.958300000000  -2.111410000000   0.153610000000 AA   -3.700650669736  -3.989986636668   0.290280829994 Bohr
   9 N      0.629690000000   1.723010000000   0.076040000000 AA    1.189941643377   3.256017009887   0.143694774512 Bohr
  10 N      0.537680000000  -0.468020000000   0.124720000000 AA    1.016067942656  -0.884429620819   0.235686642256 Bohr
  11 O      1.298350000000   0.597370000000   0.103320000000 AA    2.453525913829   1.128865695031   0.195246503190 Bohr
  12 O     -2.746990000000   4.238130000000   0.008760000000 AA   -5.191058766919   8.008904980303   0.016554000851 Bohr
  13 O     -0.583550000000   4.202010000000   0.017290000000 AA   -1.102749679990   7.940648072684   0.032673364694 Bohr
  14 H     -3.987420000000   2.032800000000   0.054390000000 AA   -7.535131743613   3.841435266016   0.102782203915 Bohr
  15 H     -4.072290000000  -0.430770000000   0.109270000000 AA   -7.695512799805  -0.814037322679   0.206490373631 Bohr
  16 H     -2.858670000000  -2.612450000000   0.162220000000 AA   -5.402103380510  -4.936815014120   0.306551371927 Bohr
  17 H     -1.086360000000  -2.660180000000   0.168450000000 AA   -2.052922872683  -5.027011642045   0.318324365683 Bohr


******** <class 'pyscf.scf.hf.DFRKS_Scanner'> ********
method = DFRKS_Scanner
initial guess = minao
damping factor = 0
level_shift factor = 0
DIIS = <class 'pyscf.scf.diis.CDIIS'>
diis_start_cycle = 1
diis_space = 8
diis_damp = 0
SCF conv_tol = 1e-09
SCF conv_tol_grad = None
SCF max_cycles = 50
direct_scf = False
chkfile to save SCF result = /tmp/tmpzdfzyc95
max_memory 4000 MB (current use 146 MB)
XC library pyscf.dft.libxc version 7.0.0
    S. Lehtola, C. Steigemann, M. J.T. Oliveira, and M. A.L. Marques.,  SoftwareX 7, 1–5 (2018)
XC functionals = b3lyp
    P. J. Stephens, F. J. Devlin, C. F. Chabalowski, and M. J. Frisch.,  J. Phys. Chem. 98, 11623 (1994)
radial grids: 
    Treutler-Ahlrichs [JCP 102, 346 (1995); DOI:10.1063/1.469408] (M4) radial grids
    
becke partition: Becke, JCP 88, 2547 (1988); DOI:10.1063/1.454033
pruning grids: <function nwchem_prune at 0x14dce4b92050>
grids dens level: 3
symmetrized grids: False
atomic radii adjust function: <function treutler_atomic_radii_adjust at 0x14dce4b90a60>
small_rho_cutoff = 0
Set gradient conv threshold to 3.16228e-05
Initial guess from minao.
tot grids = 221800
******** <class 'pyscf.df.df.DF'> ********
auxbasis = None
max_memory = 4000
init E= -678.435913279275
  HOMO = -0.240185683930718  LUMO = -0.150427494405354
cycle= 1 E= -675.221958458643  delta_E= 3.21  |g|=  1.3  |ddm|= 5.48
  HOMO = -0.114550650276054  LUMO = -0.0579312007877116
cycle= 2 E= -671.889605763444  delta_E= 3.33  |g|= 3.34  |ddm|= 4.23
  HOMO = -0.21301477457746  LUMO = -0.128569722075184
cycle= 3 E= -675.093507343921  delta_E= -3.2  |g|=  1.4  |ddm|= 3.84
  HOMO = -0.230189083683153  LUMO = -0.11612636246662
cycle= 4 E= -675.528934703964  delta_E= -0.435  |g|= 0.308  |ddm|= 1.13
  HOMO = -0.246151103268769  LUMO = -0.121759495886929
cycle= 5 E= -675.5336978861  delta_E= -0.00476  |g|= 0.308  |ddm|= 0.57
  HOMO = -0.24420516703015  LUMO = -0.117714878492144
cycle= 6 E= -675.55529266335  delta_E= -0.0216  |g|= 0.0985  |ddm|= 0.361
  HOMO = -0.241409062549503  LUMO = -0.112640111985936
cycle= 7 E= -675.556833431466  delta_E= -0.00154  |g|= 0.0532  |ddm|= 0.128
  HOMO = -0.242157578674062  LUMO = -0.113449797675304
cycle= 8 E= -675.557426121791  delta_E= -0.000593  |g|= 0.0155  |ddm|= 0.0647
  HOMO = -0.242465503378045  LUMO = -0.11399171294039
cycle= 9 E= -675.557471963238  delta_E= -4.58e-05  |g|= 0.00656  |ddm|= 0.0206
  HOMO = -0.242418709906334  LUMO = -0.114005014522148
cycle= 10 E= -675.55748001727  delta_E= -8.05e-06  |g|= 0.00224  |ddm|= 0.00681
  HOMO = -0.242372057848189  LUMO = -0.113916877192122
cycle= 11 E= -675.557481054137  delta_E= -1.04e-06  |g|= 0.000831  |ddm|= 0.00197
  HOMO = -0.242337122567532  LUMO = -0.11390011142552
cycle= 12 E= -675.557481164168  delta_E= -1.1e-07  |g|= 0.000484  |ddm|= 0.00106
  HOMO = -0.242349927001623  LUMO = -0.113905016989684
cycle= 13 E= -675.557481218833  delta_E= -5.47e-08  |g|= 0.000177  |ddm|= 0.000668
  HOMO = -0.242350784211523  LUMO = -0.113905915254421
cycle= 14 E= -675.557481224843  delta_E= -6.01e-09  |g|= 8.76e-05  |ddm|= 0.000292
  HOMO = -0.242351767793596  LUMO = -0.113906606999884
cycle= 15 E= -675.557481226226  delta_E= -1.38e-09  |g|= 5.7e-05  |ddm|= 0.000144
  HOMO = -0.242351113332344  LUMO = -0.113906521938484
cycle= 16 E= -675.557481226742  delta_E= -5.16e-10  |g|= 3.03e-05  |ddm|= 7.38e-05
  HOMO = -0.242350485086379  LUMO = -0.11390523354489
Extra cycle  E= -675.557481225402  delta_E= 1.34e-09  |g|= 8.25e-05  |ddm|= 0.000108
converged SCF energy = -675.557481225402


******** <class 'pyscf.grad.rhf.Gradients_Scanner'> for <class 'pyscf.scf.hf.DFRKS_Scanner'> ********
unit = Eh/Bohr
max_memory 4000 MB (current use 419 MB)
grid_response = False
--------------- DFRKS_Scanner gradients ---------------
         x                y                z
0 C    -0.0248484609    -0.0036567568    -0.0000000451
1 C    -0.0181915917    -0.0049926668     0.0000492885
2 C     0.0323683896     0.0069959952    -0.0000556514
3 C    -0.0232940495    -0.0579755509     0.0012256282
4 C     0.0440395227     0.0633736120    -0.0012740421
5 C    -0.0264762133     0.0422693450    -0.0010253931
6 N    -0.0895730744    -0.0466426426     0.0007144930
7 N    -0.0042457334    -0.0267885953     0.0005853746
8 N     0.0101545943    -0.0367464734     0.0008498100
9 N     0.0170848341     0.0374275652    -0.0007781867
10 O    -0.0237528307     0.0074281908    -0.0002480454
11 O     0.0505743831    -0.0097292222     0.0003849468
12 O     0.0513453625     0.0527210466    -0.0009842910
13 H     0.0020143903    -0.0063843565     0.0001504986
14 H     0.0045643912     0.0029553274    -0.0000515770
15 H    -0.0151880201    -0.0095245986     0.0001722653
16 H     0.0133714226    -0.0107112849     0.0002749247
----------------------------------------------
cycle 1: E = -675.557481225  dE = -675.557  norm(grad) = 0.194668

Geometry optimization cycle 2
Cartesian coordinates (Angstrom)
 Atom        New coordinates             dX        dY        dZ
   C  -2.976353   1.495373   0.069762    0.081417  0.016803  0.000012
   C  -3.082485   0.089988   0.100778    0.027335  0.024988 -0.000452
   C  -1.773992   2.182209   0.058262    0.040388  0.021219 -0.000208
   C  -0.574594   1.403773   0.079398    0.088336  0.042403 -0.000612
   C  -1.947783  -0.721767   0.122472   -0.025013 -0.025717  0.000442
   C  -0.705925  -0.015149   0.110613    0.011565 -0.019559  0.000443
   N  -1.802419   3.612649   0.026371   -0.055829  0.026459 -0.000479
   N  -1.981782  -2.079165   0.152774   -0.023482  0.032245 -0.000836
   N   0.732707   1.713269   0.076785    0.103017 -0.009741  0.000745
   N   0.518493  -0.556330   0.126613   -0.019187 -0.088310  0.001893
   O   1.323379   0.509111   0.105569    0.025029 -0.088259  0.002249
   O  -2.931671   4.067873   0.012780   -0.184681 -0.170257  0.004020
   O  -0.702604   4.221496   0.016334   -0.119054  0.019486 -0.000956
   H  -3.889782   2.089640   0.053584    0.097638  0.056840 -0.000806
   H  -4.071879  -0.369036   0.107900    0.000411  0.061734 -0.001370
   H  -2.862317  -2.570234   0.161157   -0.003647  0.042216 -0.001063
   H  -1.121124  -2.606136   0.167227   -0.034764  0.054044 -0.001223
New geometry
   1 C     -2.976352964969   1.495372614974   0.069762094375 AA   -5.624491953829   2.825844696476   0.131831252245 Bohr
   2 C     -3.082485050293   0.089988292127   0.100778470353 AA   -5.825052528120   0.170053226537   0.190443708220 Bohr
   3 C     -1.773992156213   2.182208852934   0.058262486182 AA   -3.352359322369   4.123777078647   0.110100142220 Bohr
   4 C     -0.574593578028   1.403773385589   0.079397514342 AA   -1.085824495408   2.652747239716   0.150039557077 Bohr
   5 C     -1.947782682953  -0.721767189873   0.122471793020 AA   -3.680775820952  -1.363942314558   0.231438146792 Bohr
   6 C     -0.705924548542  -0.015149309371   0.110613263548 AA   -1.334004061351  -0.028628045687   0.209028773850 Bohr
   7 N     -1.802418817933   3.612649182780   0.026370688409 AA   -3.406077927656   6.826917539588   0.049833378809 Bohr
   8 N     -1.981782304154  -2.079164979235   0.152774421749 AA   -3.745025793360  -3.929052378540   0.288701815944 Bohr
   9 N      0.732706567484   1.713269238633   0.076784535301 AA    1.384614742214   3.237609638658   0.145101742320 Bohr
  10 N      0.518493015802  -0.556330341035   0.126613016245 AA    0.979809797366  -1.051311979343   0.239263924508 Bohr
  11 O      1.323378796391   0.509110526530   0.105568896255 AA    2.500823484236   0.962079462275   0.199496301195 Bohr
  12 O     -2.931670888734   4.067872946642   0.012779790689 AA   -5.540055067068   7.687165778682   0.024150304332 Bohr
  13 O     -0.702604351093   4.221496174731   0.016334322969 AA   -1.327729797494   7.977471606140   0.030867396841 Bohr
  14 H     -3.889781904487   2.089640478053   0.053584474142 AA   -7.350622483770   3.948848202326   0.101259980657 Bohr
  15 H     -4.071879232356  -0.369036213696   0.107899782034 AA   -7.694736561457  -0.697377373933   0.203901036944 Bohr
  16 H     -2.862317490376  -2.570234499409   0.161157105766 AA   -5.408996138364  -4.857039279792   0.304542792925 Bohr
  17 H     -1.121123558179  -2.606135783448   0.167226908787 AA   -2.118616476755  -4.924882874145   0.316013058264 Bohr


******** <class 'pyscf.scf.hf.DFRKS_Scanner'> ********
method = DFRKS_Scanner
initial guess = minao
damping factor = 0
level_shift factor = 0
DIIS = <class 'pyscf.scf.diis.CDIIS'>
diis_start_cycle = 1
diis_space = 8
diis_damp = 0
SCF conv_tol = 1e-09
SCF conv_tol_grad = None
SCF max_cycles = 50
direct_scf = False
chkfile to save SCF result = /tmp/tmpzdfzyc95
max_memory 4000 MB (current use 233 MB)
XC library pyscf.dft.libxc version 7.0.0
    S. Lehtola, C. Steigemann, M. J.T. Oliveira, and M. A.L. Marques.,  SoftwareX 7, 1–5 (2018)
XC functionals = b3lyp
    P. J. Stephens, F. J. Devlin, C. F. Chabalowski, and M. J. Frisch.,  J. Phys. Chem. 98, 11623 (1994)
radial grids: 
    Treutler-Ahlrichs [JCP 102, 346 (1995); DOI:10.1063/1.469408] (M4) radial grids
    
becke partition: Becke, JCP 88, 2547 (1988); DOI:10.1063/1.454033
pruning grids: <function nwchem_prune at 0x14dce4b92050>
grids dens level: 3
symmetrized grids: False
atomic radii adjust function: <function treutler_atomic_radii_adjust at 0x14dce4b90a60>
small_rho_cutoff = 0
Set gradient conv threshold to 3.16228e-05
tot grids = 221800
******** <class 'pyscf.df.df.DF'> ********
auxbasis = None
max_memory = 4000
init E= -675.564510174548
  HOMO = -0.229208325599659  LUMO = -0.106436636646845
cycle= 1 E= -675.550187176054  delta_E= 0.0143  |g|= 0.355  |ddm|= 0.831
  HOMO = -0.232570734466674  LUMO = -0.100794505011185
cycle= 2 E= -675.391915613931  delta_E= 0.158  |g|= 0.938  |ddm|= 1.11
  HOMO = -0.237945817195997  LUMO = -0.105193522890704
cycle= 3 E= -675.574988701825  delta_E= -0.183  |g|= 0.124  |ddm|= 0.824
  HOMO = -0.238181734639553  LUMO = -0.107489852816268
cycle= 4 E= -675.577965609846  delta_E= -0.00298  |g|= 0.0412  |ddm|= 0.143
  HOMO = -0.239074162920049  LUMO = -0.108096100961987
cycle= 5 E= -675.57821923567  delta_E= -0.000254  |g|= 0.021  |ddm|= 0.0538
  HOMO = -0.238925046309573  LUMO = -0.107645434957539
cycle= 6 E= -675.578323257194  delta_E= -0.000104  |g|= 0.00771  |ddm|= 0.0274
  HOMO = -0.238911733401216  LUMO = -0.10755692187228
cycle= 7 E= -675.578335309216  delta_E= -1.21e-05  |g|= 0.00272  |ddm|= 0.00949
  HOMO = -0.238882935917879  LUMO = -0.107529987410303
cycle= 8 E= -675.578336926904  delta_E= -1.62e-06  |g|= 0.000645  |ddm|= 0.00283
  HOMO = -0.238881283466928  LUMO = -0.107543639930912
cycle= 9 E= -675.578337009478  delta_E= -8.26e-08  |g|= 0.000246  |ddm|= 0.000772
  HOMO = -0.23889739066356  LUMO = -0.107545013257545
cycle= 10 E= -675.57833702122  delta_E= -1.17e-08  |g|= 0.000131  |ddm|= 0.000359
  HOMO = -0.238892085580033  LUMO = -0.107543695537824
cycle= 11 E= -675.578337025104  delta_E= -3.88e-09  |g|= 4.55e-05  |ddm|= 0.000143
  HOMO = -0.238891300541126  LUMO = -0.107542947335356
cycle= 12 E= -675.578337025495  delta_E= -3.91e-10  |g|= 1.56e-05  |ddm|= 4.72e-05
  HOMO = -0.238892341474801  LUMO = -0.1075427859131
Extra cycle  E= -675.578337025323  delta_E= 1.72e-10  |g|= 3.19e-05  |ddm|= 4.31e-05
converged SCF energy = -675.578337025323


******** <class 'pyscf.grad.rhf.Gradients_Scanner'> for <class 'pyscf.scf.hf.DFRKS_Scanner'> ********
unit = Eh/Bohr
max_memory 4000 MB (current use 436 MB)
grid_response = False
--------------- DFRKS_Scanner gradients ---------------
         x                y                z
0 C     0.0024145874     0.0022691793    -0.0000360447
1 C    -0.0023353148     0.0020680775    -0.0000572259
2 C    -0.0067058598     0.0147755833    -0.0003475317
3 C     0.0017951774    -0.0134485646     0.0003008643
4 C     0.0107414739     0.0019596137    -0.0000110889
5 C    -0.0183006062     0.0126317865    -0.0003324402
6 N    -0.0314569694     0.0036054956    -0.0001961614
7 N    -0.0039657585    -0.0054484464     0.0001137421
8 N     0.0259882583     0.0011834156     0.0000620036
9 N     0.0199908050    -0.0070259028     0.0002034984
10 O    -0.0378927623     0.0091503309    -0.0003330455
11 O     0.0046943568    -0.0344512242     0.0007922640
12 O     0.0354111583     0.0102036540    -0.0001089999
13 H    -0.0013370172     0.0005029544    -0.0000177523
14 H     0.0007431204    -0.0002475136     0.0000072932
15 H     0.0008753032     0.0011618902    -0.0000213460
16 H    -0.0007346866     0.0010741259    -0.0000280800
----------------------------------------------
cycle 2: E = -675.578337025  dE = -0.0208558  norm(grad) = 0.0857306

Geometry optimization cycle 3
Cartesian coordinates (Angstrom)
 Atom        New coordinates             dX        dY        dZ
   C  -2.996359   1.466949   0.070580   -0.020006 -0.028423  0.000818
   C  -3.076683   0.058848   0.101702    0.005802 -0.031140  0.000923
   C  -1.833432   2.185443   0.058207   -0.059440  0.003234 -0.000056
   C  -0.605001   1.418921   0.079251   -0.030408  0.015147 -0.000147
   C  -1.960014  -0.764288   0.123506   -0.012232 -0.042521  0.001034
   C  -0.695374  -0.045353   0.111610    0.010551 -0.030204  0.000997
   N  -1.869215   3.641346   0.025603   -0.066797  0.028697 -0.000768
   N  -1.955892  -2.082493   0.152881    0.025891 -0.003328  0.000107
   N   0.700254   1.719294   0.076931   -0.032453  0.006025  0.000147
   N   0.526422  -0.573517   0.127599    0.007929 -0.017187  0.000986
   O   1.349470   0.507528   0.106320    0.026091 -0.001583  0.000752
   O  -2.804159   4.454973   0.004477    0.127511  0.387101 -0.008303
   O  -0.730464   4.000771   0.020706   -0.027859 -0.220725  0.004371
   H  -3.916291   2.056339   0.054541   -0.026509 -0.033301  0.000956
   H  -4.070741  -0.403759   0.108897    0.001138 -0.034723  0.000997
   H  -2.808019  -2.597862   0.161693    0.054299 -0.027628  0.000536
   H  -1.087012  -2.572121   0.166572    0.034111  0.034015 -0.000655
New geometry
   1 C     -2.996358693212   1.466949267082   0.070580165785 AA   -5.662297301131   2.772132353416   0.133377183161 Bohr
   2 C     -3.076682756494   0.058848407432   0.101701707530 AA   -5.814087781945   0.111207372913   0.192188373632 Bohr
   3 C     -1.833432200702   2.185443012293   0.058206549840 AA   -3.464684727286   4.129888754079   0.109994437853 Bohr
   4 C     -0.605001417084   1.418920593742   0.079250504418 AA   -1.143286983263   2.681371314677   0.149761748584 Bohr
   5 C     -1.960014243986  -0.764288058356   0.123505962335 AA   -3.703890121381  -1.444295110568   0.233392443564 Bohr
   6 C     -0.695373882355  -0.045352938500   0.111610095963 AA   -1.314066191827  -0.085704632709   0.210912514106 Bohr
   7 N     -1.869215387758   3.641346426365   0.025603119649 AA   -3.532305150685   6.881147470493   0.048382884071 Bohr
   8 N     -1.955891631416  -2.082492855632   0.152881021235 AA   -3.696099512705  -3.935341153507   0.288903259778 Bohr
   9 N      0.700253809166   1.719294082081   0.076931051389 AA    1.323287917008   3.248994942719   0.145378617601 Bohr
  10 N      0.526422449133  -0.573516948368   0.127599368366 AA    0.994794254685  -1.083789960212   0.241127859880 Bohr
  11 O      1.349470272439   0.507527641618   0.106320398467 AA    2.550129228151   0.959088243304   0.200916434557 Bohr
  12 O     -2.804159420757   4.454973449974   0.004477149557 AA   -5.299093314851   8.418679712659   0.008460586482 Bohr
  13 O     -0.730463632923   4.000771298874   0.020705710766 AA   -1.380376210179   7.560362041892   0.039128122562 Bohr
  14 H     -3.916290907133   2.056339245502   0.054540910761 AA   -7.400717238605   3.885917993194   0.103067383923 Bohr
  15 H     -4.070740811423  -0.403759415163   0.108896882341 AA   -7.692585257680  -0.762994714873   0.205785283443 Bohr
  16 H     -2.808018603093  -2.597862087166   0.161693127206 AA   -5.306386112529  -4.909247854134   0.305555726644 Bohr
  17 H     -1.087012251041  -2.572120843581   0.166572307364 AA   -2.054155448514  -4.860603953654   0.314776040855 Bohr


******** <class 'pyscf.scf.hf.DFRKS_Scanner'> ********
method = DFRKS_Scanner
initial guess = minao
damping factor = 0
level_shift factor = 0
DIIS = <class 'pyscf.scf.diis.CDIIS'>
diis_start_cycle = 1
diis_space = 8
diis_damp = 0
SCF conv_tol = 1e-09
SCF conv_tol_grad = None
SCF max_cycles = 50
direct_scf = False
chkfile to save SCF result = /tmp/tmpzdfzyc95
max_memory 4000 MB (current use 232 MB)
XC library pyscf.dft.libxc version 7.0.0
    S. Lehtola, C. Steigemann, M. J.T. Oliveira, and M. A.L. Marques.,  SoftwareX 7, 1–5 (2018)
XC functionals = b3lyp
    P. J. Stephens, F. J. Devlin, C. F. Chabalowski, and M. J. Frisch.,  J. Phys. Chem. 98, 11623 (1994)
radial grids: 
    Treutler-Ahlrichs [JCP 102, 346 (1995); DOI:10.1063/1.469408] (M4) radial grids
    
becke partition: Becke, JCP 88, 2547 (1988); DOI:10.1063/1.454033
pruning grids: <function nwchem_prune at 0x14dce4b92050>
grids dens level: 3
symmetrized grids: False
atomic radii adjust function: <function treutler_atomic_radii_adjust at 0x14dce4b90a60>
small_rho_cutoff = 0
Set gradient conv threshold to 3.16228e-05
tot grids = 221800
******** <class 'pyscf.df.df.DF'> ********
auxbasis = None
max_memory = 4000
init E= -675.487805298754
  HOMO = -0.253714235871837  LUMO = -0.129448771536878
cycle= 1 E= -675.539378493049  delta_E= -0.0516  |g|= 0.296  |ddm|= 1.09
  HOMO = -0.192906388706358  LUMO = -0.114192647904926
cycle= 2 E= -675.469153627793  delta_E= 0.0702  |g|= 0.631  |ddm|= 1.11
  HOMO = -0.240872446598528  LUMO = -0.104857918932925
cycle= 3 E= -675.558907826747  delta_E= -0.0898  |g|= 0.151  |ddm|= 0.748
  HOMO = -0.240004913118662  LUMO = -0.104971679499739
cycle= 4 E= -675.563466653407  delta_E= -0.00456  |g|= 0.0379  |ddm|= 0.16
  HOMO = -0.241076936239138  LUMO = -0.105395659284545
cycle= 5 E= -675.563558618783  delta_E= -9.2e-05  |g|= 0.0298  |ddm|= 0.0587
  HOMO = -0.241138292060892  LUMO = -0.105276164253921
cycle= 6 E= -675.56375743372  delta_E= -0.000199  |g|= 0.0102  |ddm|= 0.0359
  HOMO = -0.24094960867741  LUMO = -0.105106260389101
cycle= 7 E= -675.56377930132  delta_E= -2.19e-05  |g|= 0.00283  |ddm|= 0.0107
  HOMO = -0.240883624640043  LUMO = -0.104989396366572
cycle= 8 E= -675.563781087851  delta_E= -1.79e-06  |g|= 0.000895  |ddm|= 0.00316
  HOMO = -0.24090895699389  LUMO = -0.105018827718418
cycle= 9 E= -675.563781239721  delta_E= -1.52e-07  |g|= 0.000375  |ddm|= 0.00095
  HOMO = -0.240933845583648  LUMO = -0.1050346488334
cycle= 10 E= -675.563781264084  delta_E= -2.44e-08  |g|= 0.000153  |ddm|= 0.000391
  HOMO = -0.240925334197395  LUMO = -0.105032437529866
cycle= 11 E= -675.563781268196  delta_E= -4.11e-09  |g|= 8.52e-05  |ddm|= 0.00019
  HOMO = -0.240923998646412  LUMO = -0.105029721048507
cycle= 12 E= -675.563781269567  delta_E= -1.37e-09  |g|= 4.3e-05  |ddm|= 0.000126
  HOMO = -0.240923915708922  LUMO = -0.105028878540235
cycle= 13 E= -675.563781270007  delta_E= -4.39e-10  |g|= 9.8e-06  |ddm|= 5.05e-05
  HOMO = -0.24092457823154  LUMO = -0.105029456163475
Extra cycle  E= -675.563781269916  delta_E= 9.05e-11  |g|= 2.39e-05  |ddm|= 2.84e-05
converged SCF energy = -675.563781269916


******** <class 'pyscf.grad.rhf.Gradients_Scanner'> for <class 'pyscf.scf.hf.DFRKS_Scanner'> ********
unit = Eh/Bohr
max_memory 4000 MB (current use 433 MB)
grid_response = False
--------------- DFRKS_Scanner gradients ---------------
         x                y                z
0 C     0.0103818380    -0.0013517269     0.0000673972
1 C     0.0137283081     0.0066760807    -0.0001045741
2 C     0.0212307642     0.0120658266    -0.0002284198
3 C    -0.0099344716     0.0123091976    -0.0003060313
4 C    -0.0125942041    -0.0422304653     0.0008930130
5 C    -0.0039092245    -0.0075959373     0.0001501984
6 N     0.0045354831    -0.0044212285     0.0001674337
7 N    -0.0001508275     0.0203401338    -0.0004501586
8 N     0.0127447686     0.0045356606    -0.0000719161
9 N     0.0161435574    -0.0151561263     0.0003864323
10 O    -0.0019973090    -0.0012030480     0.0000302376
11 O     0.0139792913     0.0387014120    -0.0008442475
12 O    -0.0642288285    -0.0387212585     0.0006623559
13 H     0.0013444959     0.0011192699    -0.0000215745
14 H    -0.0020792762    -0.0013429660     0.0000246056
15 H     0.0110631249     0.0083900623    -0.0001519802
16 H    -0.0102616220     0.0078865435    -0.0002091460
----------------------------------------------
cycle 3: E = -675.56378127  dE = 0.0145558  norm(grad) = 0.109667

Geometry optimization cycle 4
Cartesian coordinates (Angstrom)
 Atom        New coordinates             dX        dY        dZ
   C  -3.002454   1.480188   0.070254   -0.006096  0.013239 -0.000326
   C  -3.096175   0.069933   0.101396   -0.019492  0.011085 -0.000306
   C  -1.811169   2.177648   0.058444    0.022263 -0.007795  0.000238
   C  -0.599642   1.405948   0.079574    0.005359 -0.012973  0.000323
   C  -1.961864  -0.738441   0.122946   -0.001850  0.025847 -0.000560
   C  -0.698822  -0.035032   0.111399   -0.003448  0.010321 -0.000211
   N  -1.809049   3.636650   0.025866    0.060166 -0.004696  0.000263
   N  -1.960535  -2.084009   0.152917   -0.004643 -0.001516  0.000036
   N   0.700385   1.704561   0.077281    0.000131 -0.014733  0.000350
   N   0.518578  -0.559825   0.127311   -0.007845  0.013692 -0.000288
   O   1.354618   0.504171   0.106436    0.005148 -0.003356  0.000116
   O  -2.865966   4.268834   0.008359   -0.061807 -0.186140  0.003882
   O  -0.691761   4.145531   0.017617    0.038702  0.144759 -0.003088
   H  -3.915434   2.077755   0.054042    0.000857  0.021416 -0.000499
   H  -4.086791  -0.393563   0.108614   -0.016050  0.010196 -0.000283
   H  -2.821177  -2.605895   0.161837   -0.013158 -0.008033  0.000144
   H  -1.085505  -2.583027   0.166838    0.001507 -0.010906  0.000265
New geometry
   1 C     -3.002454374762   1.480187909184   0.070254115162 AA   -5.673816469803   2.797149761250   0.132761036779 Bohr
   2 C     -3.096174686398   0.069933089684   0.101396062730 AA   -5.850922191103   0.132154386548   0.191610788668 Bohr
   3 C     -1.811168854273   2.177647542912   0.058444062392 AA   -3.422613099919   4.115157451935   0.110443271528 Bohr
   4 C     -0.599642285094   1.405947621149   0.079573716868 AA   -1.133159691536   2.656855949454   0.150372531594 Bohr
   5 C     -1.961864114764  -0.738441464788   0.122945515120 AA   -3.707385870516  -1.395452127472   0.232333351821 Bohr
   6 C     -0.698822169875  -0.035032006731   0.111399363736 AA   -1.320582510838  -0.066200898316   0.210514287913 Bohr
   7 N     -1.809049388400   3.636650354215   0.025865954005 AA   -3.418607889887   6.872273180268   0.048879569021 Bohr
   8 N     -1.960534742078  -2.084008871541   0.152916911825 AA   -3.704873720222  -3.938206008376   0.288971083163 Bohr
   9 N      0.700385113131   1.704560837013   0.077281241030 AA    1.323536045540   3.221153144614   0.146040380113 Bohr
  10 N      0.518577577403  -0.559825203325   0.127310952508 AA    0.979969595632  -1.057916311914   0.240582832897 Bohr
  11 O      1.354618347966   0.504171373383   0.106436368021 AA    2.559857680967   0.952745815539   0.201135585253 Bohr
  12 O     -2.865966135454   4.268833649245   0.008359211535 AA   -5.415891078287   8.066926468401   0.015796620418 Bohr
  13 O     -0.691761193308   4.145530549012   0.017617401749 AA   -1.307239198954   7.833917378651   0.033292064332 Bohr
  14 H     -3.915433631480   2.077755066639   0.054042369471 AA   -7.399097222408   3.926388029875   0.102125277423 Bohr
  15 H     -4.086790752219  -0.393563284658   0.108613739698 AA   -7.722915250100  -0.743726820688   0.205250221394 Bohr
  16 H     -2.821176744731  -2.605895391782   0.161836762076 AA   -5.331251396533  -4.924428599733   0.305827157210 Bohr
  17 H     -1.085504902819  -2.583026519517   0.166837617584 AA   -2.051306973201  -4.881212694375   0.315277404508 Bohr


******** <class 'pyscf.scf.hf.DFRKS_Scanner'> ********
method = DFRKS_Scanner
initial guess = minao
damping factor = 0
level_shift factor = 0
DIIS = <class 'pyscf.scf.diis.CDIIS'>
diis_start_cycle = 1
diis_space = 8
diis_damp = 0
SCF conv_tol = 1e-09
SCF conv_tol_grad = None
SCF max_cycles = 50
direct_scf = False
chkfile to save SCF result = /tmp/tmpzdfzyc95
max_memory 4000 MB (current use 232 MB)
XC library pyscf.dft.libxc version 7.0.0
    S. Lehtola, C. Steigemann, M. J.T. Oliveira, and M. A.L. Marques.,  SoftwareX 7, 1–5 (2018)
XC functionals = b3lyp
    P. J. Stephens, F. J. Devlin, C. F. Chabalowski, and M. J. Frisch.,  J. Phys. Chem. 98, 11623 (1994)
radial grids: 
    Treutler-Ahlrichs [JCP 102, 346 (1995); DOI:10.1063/1.469408] (M4) radial grids
    
becke partition: Becke, JCP 88, 2547 (1988); DOI:10.1063/1.454033
pruning grids: <function nwchem_prune at 0x14dce4b92050>
grids dens level: 3
symmetrized grids: False
atomic radii adjust function: <function treutler_atomic_radii_adjust at 0x14dce4b90a60>
small_rho_cutoff = 0
Set gradient conv threshold to 3.16228e-05
tot grids = 221800
******** <class 'pyscf.df.df.DF'> ********
auxbasis = None
max_memory = 4000
init E= -675.521932219519
  HOMO = -0.257244374937766  LUMO = -0.122880703932629
cycle= 1 E= -675.581230955369  delta_E= -0.0593  |g|= 0.113  |ddm|= 0.634
  HOMO = -0.235814773645805  LUMO = -0.108903105633178
cycle= 2 E= -675.575960757869  delta_E= 0.00527  |g|= 0.197  |ddm|= 0.296
  HOMO = -0.240099017089618  LUMO = -0.107549786191509
cycle= 3 E= -675.583825261279  delta_E= -0.00786  |g|= 0.0478  |ddm|= 0.177
  HOMO = -0.24049231934743  LUMO = -0.107896437470861
cycle= 4 E= -675.584223224783  delta_E= -0.000398  |g|= 0.0191  |ddm|= 0.0531
  HOMO = -0.240724492962726  LUMO = -0.108127741833473
cycle= 5 E= -675.584283265231  delta_E= -6e-05  |g|= 0.00833  |ddm|= 0.0218
  HOMO = -0.240804635246111  LUMO = -0.108160659534821
cycle= 6 E= -675.584297278795  delta_E= -1.4e-05  |g|= 0.00233  |ddm|= 0.00909
  HOMO = -0.240705104513605  LUMO = -0.108102983225046
cycle= 7 E= -675.58429831527  delta_E= -1.04e-06  |g|= 0.000905  |ddm|= 0.00263
  HOMO = -0.240698877126807  LUMO = -0.108067841164131
cycle= 8 E= -675.584298489466  delta_E= -1.74e-07  |g|= 0.000269  |ddm|= 0.00109
  HOMO = -0.240701793931572  LUMO = -0.108079811157597
cycle= 9 E= -675.584298506022  delta_E= -1.66e-08  |g|= 0.000107  |ddm|= 0.000346
  HOMO = -0.240704155301361  LUMO = -0.108084901503642
cycle= 10 E= -675.584298507848  delta_E= -1.83e-09  |g|= 6.02e-05  |ddm|= 0.000154
  HOMO = -0.240704670872465  LUMO = -0.108083764893732
cycle= 11 E= -675.584298508601  delta_E= -7.53e-10  |g|= 2.2e-05  |ddm|= 7.22e-05
  HOMO = -0.240702424363775  LUMO = -0.108081844056623
Extra cycle  E= -675.584298508213  delta_E= 3.88e-10  |g|= 4.57e-05  |ddm|= 6.71e-05
converged SCF energy = -675.584298508213


******** <class 'pyscf.grad.rhf.Gradients_Scanner'> for <class 'pyscf.scf.hf.DFRKS_Scanner'> ********
unit = Eh/Bohr
max_memory 4000 MB (current use 433 MB)
grid_response = False
--------------- DFRKS_Scanner gradients ---------------
         x                y                z
0 C     0.0011597198    -0.0040793678     0.0000977104
1 C     0.0016084886     0.0024767679    -0.0000501149
2 C     0.0040956808     0.0009661415    -0.0000260214
3 C    -0.0086131028     0.0056341638    -0.0001506239
4 C    -0.0029262161    -0.0082911893     0.0001683500
5 C    -0.0037358679    -0.0026115218     0.0000404593
6 N    -0.0083979414    -0.0014261875     0.0000714648
7 N     0.0000273880     0.0038528383    -0.0000832428
8 N     0.0050313648    -0.0062264229     0.0001427685
9 N     0.0079897312    -0.0004674150     0.0000309298
10 O     0.0052835864    -0.0003347736     0.0000385944
11 O     0.0000086403     0.0105000688    -0.0002640334
12 O    -0.0006706785    -0.0033980680     0.0000565934
13 H     0.0001502074     0.0000573935    -0.0000006755
14 H    -0.0012808596    -0.0007474333     0.0000137994
15 H     0.0026894568     0.0019720358    -0.0000353389
16 H    -0.0025343484     0.0020439033    -0.0000545056
----------------------------------------------
cycle 4: E = -675.584298508  dE = -0.0205172  norm(grad) = 0.025266

Geometry optimization cycle 5
Cartesian coordinates (Angstrom)
 Atom        New coordinates             dX        dY        dZ
   C  -3.004746   1.494275   0.069849   -0.002291  0.014088 -0.000405
   C  -3.092145   0.081698   0.101177    0.004030  0.011765 -0.000219
   C  -1.798480   2.164722   0.058641    0.012689 -0.012926  0.000197
   C  -0.587228   1.406781   0.079544    0.012415  0.000833 -0.000030
   C  -1.958147  -0.728090   0.122876    0.003717  0.010351 -0.000069
   C  -0.700447  -0.024194   0.111270   -0.001625  0.010838 -0.000129
   N  -1.785087   3.615095   0.026176    0.023963 -0.021555  0.000310
   N  -1.959981  -2.083402   0.153094    0.000554  0.000607  0.000177
   N   0.700168   1.724454   0.076826   -0.000217  0.019893 -0.000455
   N   0.506422  -0.550991   0.127232   -0.012156  0.008834 -0.000079
   O   1.337229   0.516552   0.106003   -0.017389  0.012380 -0.000434
   O  -2.872089   4.185579   0.010861   -0.006123 -0.083255  0.002502
   O  -0.690192   4.163712   0.017243    0.001569  0.018181 -0.000374
   H  -3.912410   2.098738   0.053410    0.003023  0.020983 -0.000632
   H  -4.079952  -0.381391   0.108357    0.006839  0.012172 -0.000256
   H  -2.826240  -2.604532   0.161938   -0.005064  0.001363  0.000102
   H  -1.084124  -2.589642   0.167236    0.001381 -0.006616  0.000398
New geometry
   1 C     -3.004745705879   1.494275485232   0.069849353832 AA   -5.678146458074   2.823771421740   0.131996148720 Bohr
   2 C     -3.092144757850   0.081698434246   0.101176769333 AA   -5.843306729846   0.154387665530   0.191196384207 Bohr
   3 C     -1.798480300456   2.164721704236   0.058640851806 AA   -3.398635208287   4.090731156908   0.110815149625 Bohr
   4 C     -0.587227777368   1.406780978696   0.079543680451 AA   -1.109699671962   2.658430766983   0.150315770992 Bohr
   5 C     -1.958147310361  -0.728089982367   0.122876165184 AA   -3.700362128136  -1.375890660712   0.232202299435 Bohr
   6 C     -0.700446861026  -0.024193679443   0.111270079626 AA   -1.323652732151  -0.045719428093   0.210269976352 Bohr
   7 N     -1.785086577509   3.615094885487   0.026176216727 AA   -3.373324740129   6.831539247886   0.049465880590 Bohr
   8 N     -1.959980806154  -2.083401722666   0.153094385993 AA   -3.703826933036  -3.937058663286   0.289306460735 Bohr
   9 N      0.700168121313   1.724454025199   0.076826276512 AA    1.323125990433   3.258745822031   0.145180621778 Bohr
  10 N      0.506421804637  -0.550991121437   0.127232364874 AA    0.956998514272  -1.041222316582   0.240434323792 Bohr
  11 O      1.337228975397   0.516551660017   0.106002511495 AA    2.526996529333   0.976141166622   0.200315715242 Bohr
  12 O     -2.872088855943   4.185579024737   0.010861018869 AA   -5.427461343147   7.909598029478   0.020524351095 Bohr
  13 O     -0.690191750512   4.163711809133   0.017242983092 AA   -1.304273381902   7.868274980879   0.032584515615 Bohr
  14 H     -3.912410306547   2.098738210127   0.053410390995 AA   -7.393383966299   3.966040424301   0.100931011186 Bohr
  15 H     -4.079951852228  -0.381390995098   0.108357270221 AA   -7.709991602122  -0.720724527110   0.204765564323 Bohr
  16 H     -2.826240461423  -2.604532147852   0.161938401309 AA   -5.340820434255  -4.921852442066   0.306019227524 Bohr
  17 H     -1.084124239050  -2.589642148964   0.167235883441 AA   -2.048697896807  -4.893714422172   0.316030017902 Bohr


******** <class 'pyscf.scf.hf.DFRKS_Scanner'> ********
method = DFRKS_Scanner
initial guess = minao
damping factor = 0
level_shift factor = 0
DIIS = <class 'pyscf.scf.diis.CDIIS'>
diis_start_cycle = 1
diis_space = 8
diis_damp = 0
SCF conv_tol = 1e-09
SCF conv_tol_grad = None
SCF max_cycles = 50
direct_scf = False
chkfile to save SCF result = /tmp/tmpzdfzyc95
max_memory 4000 MB (current use 231 MB)
XC library pyscf.dft.libxc version 7.0.0
    S. Lehtola, C. Steigemann, M. J.T. Oliveira, and M. A.L. Marques.,  SoftwareX 7, 1–5 (2018)
XC functionals = b3lyp
    P. J. Stephens, F. J. Devlin, C. F. Chabalowski, and M. J. Frisch.,  J. Phys. Chem. 98, 11623 (1994)
radial grids: 
    Treutler-Ahlrichs [JCP 102, 346 (1995); DOI:10.1063/1.469408] (M4) radial grids
    
becke partition: Becke, JCP 88, 2547 (1988); DOI:10.1063/1.454033
pruning grids: <function nwchem_prune at 0x14dce4b92050>
grids dens level: 3
symmetrized grids: False
atomic radii adjust function: <function treutler_atomic_radii_adjust at 0x14dce4b90a60>
small_rho_cutoff = 0
Set gradient conv threshold to 3.16228e-05
tot grids = 221800
******** <class 'pyscf.df.df.DF'> ********
auxbasis = None
max_memory = 4000
init E= -675.606721965445
  HOMO = -0.238450841834221  LUMO = -0.105234306124455
cycle= 1 E= -675.584355306503  delta_E= 0.0224  |g|= 0.0561  |ddm|= 0.254
  HOMO = -0.238170835006296  LUMO = -0.108701018621547
cycle= 2 E= -675.580561974314  delta_E= 0.00379  |g|= 0.145  |ddm|= 0.18
  HOMO = -0.23931998074537  LUMO = -0.108457166718129
cycle= 3 E= -675.584999259536  delta_E= -0.00444  |g|= 0.0231  |ddm|= 0.131
  HOMO = -0.23981226502768  LUMO = -0.108256644993436
cycle= 4 E= -675.585110085337  delta_E= -0.000111  |g|= 0.00514  |ddm|= 0.0238
  HOMO = -0.239887235942825  LUMO = -0.108102507370178
cycle= 5 E= -675.585113579504  delta_E= -3.49e-06  |g|= 0.0029  |ddm|= 0.00597
  HOMO = -0.239767703167242  LUMO = -0.108124084714492
cycle= 6 E= -675.585115395731  delta_E= -1.82e-06  |g|= 0.000886  |ddm|= 0.00319
  HOMO = -0.23980907031914  LUMO = -0.108142480668501
cycle= 7 E= -675.585115549596  delta_E= -1.54e-07  |g|= 0.000332  |ddm|= 0.00106
  HOMO = -0.239807629775721  LUMO = -0.10814491037387
cycle= 8 E= -675.585115574119  delta_E= -2.45e-08  |g|= 9.17e-05  |ddm|= 0.000351
  HOMO = -0.239805301661161  LUMO = -0.108142398917311
cycle= 9 E= -675.585115575718  delta_E= -1.6e-09  |g|= 3.5e-05  |ddm|= 0.000104
  HOMO = -0.239803977915734  LUMO = -0.108141932826121
cycle= 10 E= -675.585115575877  delta_E= -1.59e-10  |g|= 2.1e-05  |ddm|= 4.99e-05
  HOMO = -0.239804825158774  LUMO = -0.108142328644286
Extra cycle  E= -675.585115575355  delta_E= 5.22e-10  |g|= 5.09e-05  |ddm|= 6.99e-05
converged SCF energy = -675.585115575355


******** <class 'pyscf.grad.rhf.Gradients_Scanner'> for <class 'pyscf.scf.hf.DFRKS_Scanner'> ********
unit = Eh/Bohr
max_memory 4000 MB (current use 434 MB)
grid_response = False
--------------- DFRKS_Scanner gradients ---------------
         x                y                z
0 C    -0.0039077355     0.0030374978    -0.0000698680
1 C     0.0021620968     0.0025352478    -0.0000534681
2 C     0.0000982373    -0.0041232679     0.0001135217
3 C     0.0063781830    -0.0001118643     0.0000221214
4 C     0.0012683759    -0.0018082675     0.0000440342
5 C     0.0000243797     0.0015494938    -0.0000391815
6 N     0.0002783346     0.0031110840    -0.0001884295
7 N    -0.0000633694    -0.0004748838     0.0000097499
8 N     0.0040888371     0.0020756323    -0.0000127322
9 N    -0.0008779616    -0.0016453130     0.0000473682
10 O    -0.0104812574     0.0034057429    -0.0001393371
11 O     0.0024431419    -0.0053884833     0.0001770809
12 O    -0.0012960222    -0.0021288483     0.0000879922
13 H    -0.0007075511     0.0005224529    -0.0000145121
14 H     0.0004891553     0.0003291600    -0.0000060357
15 H    -0.0007042295    -0.0004717492     0.0000078141
16 H     0.0007319147    -0.0004977899     0.0000127650
----------------------------------------------
cycle 5: E = -675.585115575  dE = -0.000817067  norm(grad) = 0.0173347

Geometry optimization cycle 6
Cartesian coordinates (Angstrom)
 Atom        New coordinates             dX        dY        dZ
   C  -2.988387   1.484833   0.070304    0.016358 -0.009442  0.000454
   C  -3.098432   0.072907   0.101498   -0.006287 -0.008791  0.000322
   C  -1.796027   2.178845   0.058566    0.002454  0.014123 -0.000075
   C  -0.593765   1.404405   0.079790   -0.006537 -0.002376  0.000246
   C  -1.960214  -0.728736   0.122963   -0.002067 -0.000646  0.000087
   C  -0.699523  -0.028312   0.111514    0.000924 -0.004118  0.000244
   N  -1.787475   3.632110   0.025979   -0.002388  0.017015 -0.000197
   N  -1.959103  -2.082891   0.153021    0.000877  0.000511 -0.000073
   N   0.695861   1.714339   0.077232   -0.004307 -0.010115  0.000406
   N   0.508921  -0.554404   0.127447    0.002500 -0.003413  0.000215
   O   1.345954   0.509639   0.106566    0.008725 -0.006912  0.000563
   O  -2.876356   4.202748   0.009701   -0.004267  0.017169 -0.001160
   O  -0.695371   4.186643   0.016053   -0.005179  0.022932 -0.001190
   H  -3.896490   2.087466   0.053938    0.015920 -0.011272  0.000527
   H  -4.088700  -0.386038   0.108556   -0.008748 -0.004647  0.000199
   H  -2.823731  -2.605501   0.161833    0.002510 -0.000969 -0.000105
   H  -1.082745  -2.586914   0.167047    0.001379  0.002728 -0.000189
New geometry
   1 C     -2.988387308404   1.484833461677   0.070303608818 AA   -5.647233567010   2.805928583159   0.132854566234 Bohr
   2 C     -3.098431506081   0.072907045166   0.101498363549 AA   -5.855186962218   0.137774347915   0.191804109200 Bohr
   3 C     -1.796026773896   2.178844684252   0.058565511703 AA   -3.393998715050   4.117419721201   0.110672777463 Bohr
   4 C     -0.593765262890   1.404405333036   0.079790062462 AA   -1.122053729143   2.653941447317   0.150781365514 Bohr
   5 C     -1.960214429643  -0.728736278144   0.122963114504 AA   -3.704268417445  -1.377111982727   0.232366609836 Bohr
   6 C     -0.699523028207  -0.028312076662   0.111513884489 AA   -1.321906941137  -0.053502070910   0.210730700771 Bohr
   7 N     -1.787474891728   3.632109829115   0.025978964258 AA   -3.377837999902   6.863692831369   0.049093127448 Bohr
   8 N     -1.959103440384  -2.082891136988   0.153021132442 AA   -3.702168952020  -3.936093796192   0.289168031586 Bohr
   9 N      0.695860890320   1.714339495816   0.077231854687 AA    1.314986503501   3.239632131618   0.145947053450 Bohr
  10 N      0.508921331946  -0.554403867379   0.127447428424 AA    0.961721936327  -1.047671471747   0.240840735002 Bohr
  11 O      1.345953565071   0.509639276325   0.106566007573 AA    2.543483614367   0.963078654576   0.201380568501 Bohr
  12 O     -2.876356142398   4.202747714667   0.009701267413 AA   -5.435525345843   7.942042151363   0.018332738472 Bohr
  13 O     -0.695371105824   4.186643312881   0.016053341243 AA   -1.314060944944   7.911609242587   0.030336418333 Bohr
  14 H     -3.896490008221   2.087465726720   0.053937578773 AA   -7.363298962642   3.944738517917   0.101927251702 Bohr
  15 H     -4.088699972248  -0.386037566031   0.108556274999 AA   -7.726523153065  -0.729505273593   0.205141628851 Bohr
  16 H     -2.823730826559  -2.605501053898   0.161833326254 AA   -5.336077911688  -4.923683409132   0.305820664448 Bohr
  17 H     -1.082745306020  -2.586913705680   0.167047014608 AA   -2.046092091035  -4.888558411618   0.315673107536 Bohr


******** <class 'pyscf.scf.hf.DFRKS_Scanner'> ********
method = DFRKS_Scanner
initial guess = minao
damping factor = 0
level_shift factor = 0
DIIS = <class 'pyscf.scf.diis.CDIIS'>
diis_start_cycle = 1
diis_space = 8
diis_damp = 0
SCF conv_tol = 1e-09
SCF conv_tol_grad = None
SCF max_cycles = 50
direct_scf = False
chkfile to save SCF result = /tmp/tmpzdfzyc95
max_memory 4000 MB (current use 241 MB)
XC library pyscf.dft.libxc version 7.0.0
    S. Lehtola, C. Steigemann, M. J.T. Oliveira, and M. A.L. Marques.,  SoftwareX 7, 1–5 (2018)
XC functionals = b3lyp
    P. J. Stephens, F. J. Devlin, C. F. Chabalowski, and M. J. Frisch.,  J. Phys. Chem. 98, 11623 (1994)
radial grids: 
    Treutler-Ahlrichs [JCP 102, 346 (1995); DOI:10.1063/1.469408] (M4) radial grids
    
becke partition: Becke, JCP 88, 2547 (1988); DOI:10.1063/1.454033
pruning grids: <function nwchem_prune at 0x14dce4b92050>
grids dens level: 3
symmetrized grids: False
atomic radii adjust function: <function treutler_atomic_radii_adjust at 0x14dce4b90a60>
small_rho_cutoff = 0
Set gradient conv threshold to 3.16228e-05
tot grids = 221800
******** <class 'pyscf.df.df.DF'> ********
auxbasis = None
max_memory = 4000
init E= -675.57577993827
  HOMO = -0.241622989943955  LUMO = -0.109590082418596
cycle= 1 E= -675.585319408302  delta_E= -0.00954  |g|= 0.0145  |ddm|= 0.175
  HOMO = -0.240841448649145  LUMO = -0.107860771519264
cycle= 2 E= -675.585178904705  delta_E= 0.000141  |g|= 0.0295  |ddm|= 0.0447
  HOMO = -0.240503446428482  LUMO = -0.107849344752422
cycle= 3 E= -675.585364412548  delta_E= -0.000186  |g|= 0.00565  |ddm|= 0.0298
  HOMO = -0.240457700871338  LUMO = -0.107987036690303
cycle= 4 E= -675.585371014437  delta_E= -6.6e-06  |g|= 0.00152  |ddm|= 0.0062
  HOMO = -0.240496876800418  LUMO = -0.108029206556981
cycle= 5 E= -675.585371364833  delta_E= -3.5e-07  |g|= 0.000815  |ddm|= 0.0018
  HOMO = -0.240495814146471  LUMO = -0.108013278866967
cycle= 6 E= -675.585371479698  delta_E= -1.15e-07  |g|= 0.000355  |ddm|= 0.000896
  HOMO = -0.24049141394321  LUMO = -0.108007161897728
cycle= 7 E= -675.585371504158  delta_E= -2.45e-08  |g|= 0.000126  |ddm|= 0.000405
  HOMO = -0.240489194135772  LUMO = -0.108006658635977
cycle= 8 E= -675.585371507446  delta_E= -3.29e-09  |g|= 3.32e-05  |ddm|= 0.000134
  HOMO = -0.24049074047834  LUMO = -0.108007958710524
cycle= 9 E= -675.585371507682  delta_E= -2.36e-10  |g|= 1.32e-05  |ddm|= 4.49e-05
  HOMO = -0.240490638491194  LUMO = -0.108008251877036
Extra cycle  E= -675.585371507527  delta_E= 1.55e-10  |g|= 2.82e-05  |ddm|= 4.29e-05
converged SCF energy = -675.585371507527


******** <class 'pyscf.grad.rhf.Gradients_Scanner'> for <class 'pyscf.scf.hf.DFRKS_Scanner'> ********
unit = Eh/Bohr
max_memory 4000 MB (current use 434 MB)
grid_response = False
--------------- DFRKS_Scanner gradients ---------------
         x                y                z
0 C     0.0049205775    -0.0028068765     0.0000754553
1 C    -0.0037648556    -0.0015834637     0.0000241219
2 C    -0.0013063871     0.0035316688    -0.0001137960
3 C    -0.0028830893    -0.0002668699    -0.0000050468
4 C     0.0005738311     0.0024422397    -0.0000494541
5 C     0.0008823670    -0.0003424855     0.0000125994
6 N     0.0016180151     0.0025092227     0.0000800045
7 N    -0.0001729785     0.0001536886    -0.0000064312
8 N     0.0004384218    -0.0017639803     0.0000268833
9 N     0.0002766995     0.0002440630    -0.0000179219
10 O    -0.0008057460     0.0008639193    -0.0000055111
11 O     0.0010274186    -0.0021682882     0.0000098117
12 O    -0.0012221552    -0.0001863614    -0.0000450391
13 H     0.0006295941    -0.0001551884     0.0000056361
14 H    -0.0002395023    -0.0004486326     0.0000100996
15 H    -0.0002355013    -0.0000659458     0.0000001416
16 H     0.0001829480    -0.0000628893     0.0000005594
----------------------------------------------
cycle 6: E = -675.585371508  dE = -0.000255932  norm(grad) = 0.010021

Geometry optimization cycle 7
Cartesian coordinates (Angstrom)
 Atom        New coordinates             dX        dY        dZ
   C  -3.002876   1.492372   0.069948   -0.014488  0.007539 -0.000356
   C  -3.088060   0.078752   0.101397    0.010372  0.005845 -0.000102
   C  -1.803172   2.174832   0.058429   -0.007145 -0.004013 -0.000137
   C  -0.595817   1.404184   0.079737   -0.002051 -0.000221 -0.000053
   C  -1.955770  -0.731527   0.123116    0.004445 -0.002790  0.000153
   C  -0.695170  -0.029845   0.111629    0.004354 -0.001533  0.000115
   N  -1.790583   3.629465   0.025572   -0.003108 -0.002645 -0.000407
   N  -1.957869  -2.084855   0.153247    0.001235 -0.001964  0.000226
   N   0.694056   1.716605   0.077138   -0.001805  0.002266 -0.000093
   N   0.516486  -0.551316   0.127559    0.007564  0.003088  0.000111
   O   1.352549   0.514427   0.106476    0.006596  0.004788 -0.000090
   O  -2.871481   4.218108   0.009349    0.004875  0.015361 -0.000353
   O  -0.690968   4.173360   0.016618    0.004403 -0.013284  0.000564
   H  -3.914309   2.090968   0.053593   -0.017819  0.003502 -0.000344
   H  -4.076522  -0.384009   0.108575    0.012178  0.002029  0.000019
   H  -2.822706  -2.605819   0.162032    0.001024 -0.000318  0.000198
   H  -1.083058  -2.590241   0.167346   -0.000313 -0.003327  0.000299
New geometry
   1 C     -3.002875767222   1.492372165720   0.069947557382 AA   -5.674612786143   2.820174669135   0.132181726534 Bohr
   2 C     -3.088059974277   0.078751999216   0.101396620015 AA   -5.835587607616   0.148819710281   0.191611841785 Bohr
   3 C     -1.803171802750   2.174831986847   0.058428820361 AA   -3.407500862736   4.109836822085   0.110414468263 Bohr
   4 C     -0.595816732012   1.404184268032   0.079737213948 AA   -1.125930443935   2.653523695003   0.150681496297 Bohr
   5 C     -1.955769927795  -0.731526644272   0.123115842316 AA   -3.695869526192  -1.382385010496   0.232655223573 Bohr
   6 C     -0.695169521201  -0.029845442556   0.111629204966 AA   -1.313680005215  -0.056399712496   0.210948624889 Bohr
   7 N     -1.790583350030   3.629464793441   0.025572092298 AA   -3.383712134762   6.858694438355   0.048324250875 Bohr
   8 N     -1.957868803999  -2.084854927269   0.153246642893 AA   -3.699835827389  -3.939804821989   0.289594184577 Bohr
   9 N      0.694056373115   1.716605030361   0.077138416924 AA    1.311576460196   3.243913371433   0.145770481669 Bohr
  10 N      0.516485645844  -0.551316135398   0.127558900534 AA    0.976016417915  -1.041836503956   0.241051386761 Bohr
  11 O      1.352549300075   0.514427493399   0.106476247405 AA    2.555947747114   0.972127073471   0.201210946367 Bohr
  12 O     -2.871480919900   4.218108404347   0.009348681081 AA   -5.426312510526   7.971069647942   0.017666446869 Bohr
  13 O     -0.690967759073   4.173359785867   0.016617762754 AA   -1.305739825552   7.886507014562   0.031403020409 Bohr
  14 H     -3.914309437413   2.090967607630   0.053593469320 AA   -7.396972803511   3.951356113757   0.101276979079 Bohr
  15 H     -4.076522135390  -0.384008781507   0.108575436719 AA   -7.703510376613  -0.725671426476   0.205177839254 Bohr
  16 H     -2.822706353237  -2.605819217256   0.162031755178 AA   -5.334141937687  -4.924284650743   0.306195640769 Bohr
  17 H     -1.083058141126  -2.590240829988   0.167346063631 AA   -2.046683263709  -4.894845765344   0.316238228287 Bohr


******** <class 'pyscf.scf.hf.DFRKS_Scanner'> ********
method = DFRKS_Scanner
initial guess = minao
damping factor = 0
level_shift factor = 0
DIIS = <class 'pyscf.scf.diis.CDIIS'>
diis_start_cycle = 1
diis_space = 8
diis_damp = 0
SCF conv_tol = 1e-09
SCF conv_tol_grad = None
SCF max_cycles = 50
direct_scf = False
chkfile to save SCF result = /tmp/tmpzdfzyc95
max_memory 4000 MB (current use 241 MB)
XC library pyscf.dft.libxc version 7.0.0
    S. Lehtola, C. Steigemann, M. J.T. Oliveira, and M. A.L. Marques.,  SoftwareX 7, 1–5 (2018)
XC functionals = b3lyp
    P. J. Stephens, F. J. Devlin, C. F. Chabalowski, and M. J. Frisch.,  J. Phys. Chem. 98, 11623 (1994)
radial grids: 
    Treutler-Ahlrichs [JCP 102, 346 (1995); DOI:10.1063/1.469408] (M4) radial grids
    
becke partition: Becke, JCP 88, 2547 (1988); DOI:10.1063/1.454033
pruning grids: <function nwchem_prune at 0x14dce4b92050>
grids dens level: 3
symmetrized grids: False
atomic radii adjust function: <function treutler_atomic_radii_adjust at 0x14dce4b90a60>
small_rho_cutoff = 0
Set gradient conv threshold to 3.16228e-05
tot grids = 221800
******** <class 'pyscf.df.df.DF'> ********
auxbasis = None
max_memory = 4000
init E= -675.578041754463
  HOMO = -0.240923344960046  LUMO = -0.109295622526969
cycle= 1 E= -675.585366089278  delta_E= -0.00732  |g|= 0.016  |ddm|= 0.104
  HOMO = -0.240829287574236  LUMO = -0.108670078291309
cycle= 2 E= -675.585101440318  delta_E= 0.000265  |g|= 0.0385  |ddm|= 0.05
  HOMO = -0.240539457115357  LUMO = -0.108661497925084
cycle= 3 E= -675.585416747067  delta_E= -0.000315  |g|= 0.00812  |ddm|= 0.0362
  HOMO = -0.240476885523356  LUMO = -0.108655884069469
cycle= 4 E= -675.585430255055  delta_E= -1.35e-05  |g|= 0.00151  |ddm|= 0.00823
  HOMO = -0.240500542913901  LUMO = -0.108674642286226
cycle= 5 E= -675.58543055544  delta_E= -3e-07  |g|= 0.000867  |ddm|= 0.00189
  HOMO = -0.240501976355941  LUMO = -0.10867697139305
cycle= 6 E= -675.585430722759  delta_E= -1.67e-07  |g|= 0.000209  |ddm|= 0.000989
  HOMO = -0.240493407922829  LUMO = -0.108672478972202
cycle= 7 E= -675.585430730214  delta_E= -7.46e-09  |g|= 0.000139  |ddm|= 0.000336
  HOMO = -0.240493525322037  LUMO = -0.108670530017673
cycle= 8 E= -675.585430734255  delta_E= -4.04e-09  |g|= 3.98e-05  |ddm|= 0.000149
  HOMO = -0.240494701996694  LUMO = -0.108671685270945
cycle= 9 E= -675.585430734587  delta_E= -3.32e-10  |g|= 1.35e-05  |ddm|= 4.61e-05
  HOMO = -0.240494875246226  LUMO = -0.108672200224218
Extra cycle  E= -675.585430734399  delta_E= 1.88e-10  |g|= 3.11e-05  |ddm|= 4.5e-05
converged SCF energy = -675.585430734399


******** <class 'pyscf.grad.rhf.Gradients_Scanner'> for <class 'pyscf.scf.hf.DFRKS_Scanner'> ********
unit = Eh/Bohr
max_memory 4000 MB (current use 437 MB)
grid_response = False
--------------- DFRKS_Scanner gradients ---------------
         x                y                z
0 C    -0.0025093517     0.0007070775    -0.0000198827
1 C     0.0026271538     0.0014110976    -0.0000253131
2 C     0.0004758721    -0.0012464183     0.0000394281
3 C    -0.0025769268     0.0013379364    -0.0000314693
4 C    -0.0009525708    -0.0018317409     0.0000375148
5 C    -0.0004502765    -0.0002509968     0.0000022816
6 N    -0.0011839411    -0.0005451258    -0.0000543102
7 N     0.0002593423     0.0000298016    -0.0000020351
8 N    -0.0002674640    -0.0028917125     0.0000621331
9 N     0.0008293411     0.0008972866    -0.0000182061
10 O     0.0034091174    -0.0001441364     0.0000148766
11 O    -0.0001176519     0.0014405436    -0.0000076139
12 O     0.0003842034     0.0002239972     0.0000198464
13 H    -0.0002010368     0.0002640513    -0.0000037222
14 H     0.0001734986     0.0001747172    -0.0000030941
15 H     0.0003563493     0.0001934729    -0.0000034970
16 H    -0.0003402764     0.0001303721    -0.0000054985
----------------------------------------------
cycle 7: E = -675.585430734  dE = -5.92269e-05  norm(grad) = 0.00751884

Geometry optimization cycle 8
Cartesian coordinates (Angstrom)
 Atom        New coordinates             dX        dY        dZ
   C  -2.997971   1.489145   0.070020    0.004905 -0.003227  0.000073
   C  -3.094123   0.076210   0.101447   -0.006063 -0.002542  0.000050
   C  -1.798966   2.173259   0.058494    0.004206 -0.001573  0.000066
   C  -0.589576   1.407576   0.079705    0.006241  0.003392 -0.000033
   C  -1.957132  -0.727405   0.123066   -0.001362  0.004122 -0.000050
   C  -0.697073  -0.025200   0.111561   -0.001904  0.004645 -0.000068
   N  -1.789294   3.626890   0.025640    0.001290 -0.002575  0.000068
   N  -1.956205  -2.081361   0.153251    0.001664  0.003494  0.000004
   N   0.698800   1.722362   0.077067    0.004744  0.005757 -0.000071
   N   0.512196  -0.549619   0.127560   -0.004289  0.001698  0.000001
   O   1.348501   0.515811   0.106439   -0.004048  0.001384 -0.000037
   O  -2.871737   4.211918   0.009257   -0.000256 -0.006190 -0.000092
   O  -0.691262   4.173838   0.016446   -0.000294  0.000479 -0.000172
   H  -3.907737   2.089861   0.053580    0.006572 -0.001107 -0.000013
   H  -4.083056  -0.385666   0.108589   -0.006534 -0.001657  0.000013
   H  -2.820212  -2.604530   0.162080    0.002495  0.001289  0.000049
   H  -1.079878  -2.584889   0.167336    0.003180  0.005352 -0.000010
New geometry
   1 C     -2.997970977752   1.489145395788   0.070020106856 AA   -5.665344077346   2.814076957697   0.132318825171 Bohr
   2 C     -3.094123239614   0.076209924443   0.101446649226 AA   -5.847045518523   0.144015885172   0.191706383292 Bohr
   3 C     -1.798965727062   2.173258842933   0.058494376636 AA   -3.399552531627   4.106864010933   0.110538351669 Bohr
   4 C     -0.589575871034   1.407575980354   0.079704705338 AA   -1.114136925906   2.659933102385   0.150620063928 Bohr
   5 C     -1.957132219478  -0.727404924296   0.123065967521 AA   -3.698443884375  -1.374596088579   0.232560973870 Bohr
   6 C     -0.697073185918  -0.025200467773   0.111561302753 AA   -1.317277410163  -0.047621982302   0.210820308304 Bohr
   7 N     -1.789293575017   3.626889794473   0.025639776948 AA   -3.381274813226   6.853828395534   0.048452156326 Bohr
   8 N     -1.956204545292  -2.081360694744   0.153250773177 AA   -3.696690834231  -3.933201679500   0.289601989682 Bohr
   9 N      0.698800072356   1.722362128369   0.077067102010 AA    1.320540752579   3.254792709940   0.145635716013 Bohr
  10 N      0.512196490210  -0.549618527358   0.127560261373 AA    0.967911088460  -1.038628489693   0.241053958373 Bohr
  11 O      1.348500912684   0.515811177894   0.106439438067 AA    2.548297403698   0.974741858210   0.201141386800 Bohr
  12 O     -2.871737066846   4.211918421305   0.009257174091 AA   -5.426796558100   7.959372275276   0.017493523719 Bohr
  13 O     -0.691261715317   4.173838418770   0.016445720801 AA   -1.306295322347   7.887411499662   0.031077908236 Bohr
  14 H     -3.907736941586   2.089860697825   0.053580409704 AA   -7.384552586444   3.949264357382   0.101252299982 Bohr
  15 H     -4.083056035634  -0.385666116798   0.108588862858 AA   -7.715857658602  -0.728803336273   0.205203210979 Bohr
  16 H     -2.820211516544  -2.604529784031   0.162080297473 AA   -5.329427379612  -4.921847975092   0.306287372412 Bohr
  17 H     -1.079878226543  -2.584888810378   0.167336374915 AA   -2.040674096047  -4.884731914068   0.316219919267 Bohr


******** <class 'pyscf.scf.hf.DFRKS_Scanner'> ********
method = DFRKS_Scanner
initial guess = minao
damping factor = 0
level_shift factor = 0
DIIS = <class 'pyscf.scf.diis.CDIIS'>
diis_start_cycle = 1
diis_space = 8
diis_damp = 0
SCF conv_tol = 1e-09
SCF conv_tol_grad = None
SCF max_cycles = 50
direct_scf = False
chkfile to save SCF result = /tmp/tmpzdfzyc95
max_memory 4000 MB (current use 240 MB)
XC library pyscf.dft.libxc version 7.0.0
    S. Lehtola, C. Steigemann, M. J.T. Oliveira, and M. A.L. Marques.,  SoftwareX 7, 1–5 (2018)
XC functionals = b3lyp
    P. J. Stephens, F. J. Devlin, C. F. Chabalowski, and M. J. Frisch.,  J. Phys. Chem. 98, 11623 (1994)
radial grids: 
    Treutler-Ahlrichs [JCP 102, 346 (1995); DOI:10.1063/1.469408] (M4) radial grids
    
becke partition: Becke, JCP 88, 2547 (1988); DOI:10.1063/1.454033
pruning grids: <function nwchem_prune at 0x14dce4b92050>
grids dens level: 3
symmetrized grids: False
atomic radii adjust function: <function treutler_atomic_radii_adjust at 0x14dce4b90a60>
small_rho_cutoff = 0
Set gradient conv threshold to 3.16228e-05
tot grids = 221800
******** <class 'pyscf.df.df.DF'> ********
auxbasis = None
max_memory = 4000
init E= -675.587455780926
  HOMO = -0.24039967822004  LUMO = -0.108343524729426
cycle= 1 E= -675.585478556169  delta_E= 0.00198  |g|= 0.00831  |ddm|= 0.0435
  HOMO = -0.24030111206216  LUMO = -0.108565207049869
cycle= 2 E= -675.585436794015  delta_E= 4.18e-05  |g|= 0.0165  |ddm|= 0.0229
  HOMO = -0.240425234373769  LUMO = -0.108582990173115
cycle= 3 E= -675.585492511181  delta_E= -5.57e-05  |g|= 0.00329  |ddm|= 0.015
  HOMO = -0.240459120096238  LUMO = -0.108549902806933
cycle= 4 E= -675.585494734863  delta_E= -2.22e-06  |g|= 0.000947  |ddm|= 0.00363
  HOMO = -0.240457921949629  LUMO = -0.108531824537536
cycle= 5 E= -675.585494877928  delta_E= -1.43e-07  |g|= 0.000483  |ddm|= 0.00112
  HOMO = -0.240448847135274  LUMO = -0.108537314002363
cycle= 6 E= -675.585494922928  delta_E= -4.5e-08  |g|= 0.000155  |ddm|= 0.000494
  HOMO = -0.240453638161739  LUMO = -0.108538887351421
cycle= 7 E= -675.585494927573  delta_E= -4.65e-09  |g|= 6.29e-05  |ddm|= 0.000184
  HOMO = -0.24045410806783  LUMO = -0.108539504712152
cycle= 8 E= -675.585494928296  delta_E= -7.23e-10  |g|= 2.3e-05  |ddm|= 6.39e-05
  HOMO = -0.240452255779116  LUMO = -0.108538635346669
Extra cycle  E= -675.585494927752  delta_E= 5.44e-10  |g|= 5.54e-05  |ddm|= 6.91e-05
converged SCF energy = -675.585494927752


******** <class 'pyscf.grad.rhf.Gradients_Scanner'> for <class 'pyscf.scf.hf.DFRKS_Scanner'> ********
unit = Eh/Bohr
max_memory 4000 MB (current use 434 MB)
grid_response = False
--------------- DFRKS_Scanner gradients ---------------
         x                y                z
0 C    -0.0002859039    -0.0000103271     0.0000000226
1 C    -0.0004455392    -0.0002273099     0.0000030941
2 C     0.0006078286    -0.0010581701     0.0000248892
3 C     0.0013330546    -0.0000361594     0.0000061735
4 C     0.0002745561     0.0002502501    -0.0000052855
5 C    -0.0005190210    -0.0002279454     0.0000011291
6 N    -0.0007986482    -0.0005855433     0.0000052369
7 N    -0.0001730612     0.0000780853    -0.0000046411
8 N     0.0011692569     0.0000356374     0.0000091904
9 N    -0.0002240387    -0.0002257905     0.0000089812
10 O    -0.0012216027     0.0011817117    -0.0000412838
11 O     0.0002256510     0.0006814511    -0.0000099028
12 O     0.0001975602     0.0001928332    -0.0000006073
13 H    -0.0000850427    -0.0001012466     0.0000040749
14 H    -0.0001104296    -0.0000314081     0.0000008843
15 H    -0.0000020055    -0.0000521009     0.0000006816
16 H    -0.0000256492     0.0000393788    -0.0000022392
----------------------------------------------
cycle 8: E = -675.585494928  dE = -6.41934e-05  norm(grad) = 0.00317236

Geometry optimization cycle 9
Cartesian coordinates (Angstrom)
 Atom        New coordinates             dX        dY        dZ
   C  -2.995501   1.491064   0.069965    0.002470  0.001918 -0.000055
   C  -3.090343   0.077896   0.101449    0.003780  0.001686  0.000002
   C  -1.798471   2.177379   0.058384    0.000495  0.004120 -0.000110
   C  -0.592012   1.407550   0.079708   -0.002436 -0.000025  0.000003
   C  -1.954995  -0.727955   0.123156    0.002137 -0.000550  0.000090
   C  -0.695356  -0.025416   0.111635    0.001717 -0.000216  0.000074
   N  -1.788205   3.630413   0.025494    0.001088  0.003523 -0.000146
   N  -1.954683  -2.082085   0.153384    0.001522 -0.000725  0.000134
   N   0.695974   1.722366   0.077065   -0.002826  0.000004 -0.000002
   N   0.513919  -0.549363   0.127656    0.001723  0.000256  0.000095
   O   1.348889   0.516736   0.106577    0.000388  0.000925  0.000137
   O  -2.874236   4.208434   0.009118   -0.002499 -0.003484 -0.000139
   O  -0.692367   4.180052   0.016128   -0.001106  0.006214 -0.000318
   H  -3.905718   2.090939   0.053496    0.002018  0.001078 -0.000085
   H  -4.079336  -0.383496   0.108575    0.003720  0.002171 -0.000014
   H  -2.819646  -2.603855   0.162173    0.000566  0.000675  0.000093
   H  -1.078852  -2.586760   0.167516    0.001026 -0.001871  0.000180
New geometry
   1 C     -2.995501019027   1.491063528451   0.069964790136 AA   -5.660676531817   2.817701703100   0.132214291719 Bohr
   2 C     -3.090343224597   0.077896365175   0.101448903724 AA   -5.839902325394   0.147202796279   0.191710643676 Bohr
   3 C     -1.798470666899   2.177378976081   0.058383936019 AA   -3.398617003504   4.114649934180   0.110329649150 Bohr
   4 C     -0.592011608092   1.407550496528   0.079707565045 AA   -1.118739801856   2.659884944934   0.150625467992 Bohr
   5 C     -1.954995258545  -0.727954826774   0.123156068109 AA   -3.694405613473  -1.375635253658   0.232731239304 Bohr
   6 C     -0.695356010764  -0.025416046908   0.111635497589 AA   -1.314032419415  -0.048029367825   0.210960516223 Bohr
   7 N     -1.788205114239   3.630412984409   0.025493937963 AA   -3.379217920459   6.860486259598   0.048176560587 Bohr
   8 N     -1.954682500599  -2.082085470434   0.153384456523 AA   -3.693814586612  -3.934571307057   0.289854614593 Bohr
   9 N      0.695973688333   1.722366396204   0.077065102775 AA    1.315199660852   3.254800774979   0.145631938005 Bohr
  10 N      0.513919044722  -0.549362840402   0.127655574794 AA    0.971166244723  -1.038145311373   0.241234074635 Bohr
  11 O      1.348889077949   0.516736251001   0.106576736674 AA    2.549030929741   0.976489993027   0.201400843564 Bohr
  12 O     -2.874235926818   4.208434162848   0.009118360723 AA   -5.431518719072   7.952787981046   0.017231204471 Bohr
  13 O     -0.692367285382   4.180052487276   0.016127816606 AA   -1.308384546980   7.899154387258   0.030477156372 Bohr
  14 H     -3.905718474181   2.090938503712   0.053495530287 AA   -7.380738235856   3.951301115323   0.101091901130 Bohr
  15 H     -4.079336113428  -0.383495549643   0.108574938646 AA   -7.708828024426  -0.724701558815   0.205176898032 Bohr
  16 H     -2.819645631810  -2.603854635380   0.162172967168 AA   -5.328358012447  -4.920572129047   0.306462492756 Bohr
  17 H     -1.078852460284  -2.586759802072   0.167516119783 AA   -2.038735678750  -4.888267575951   0.316559587839 Bohr


******** <class 'pyscf.scf.hf.DFRKS_Scanner'> ********
method = DFRKS_Scanner
initial guess = minao
damping factor = 0
level_shift factor = 0
DIIS = <class 'pyscf.scf.diis.CDIIS'>
diis_start_cycle = 1
diis_space = 8
diis_damp = 0
SCF conv_tol = 1e-09
SCF conv_tol_grad = None
SCF max_cycles = 50
direct_scf = False
chkfile to save SCF result = /tmp/tmpzdfzyc95
max_memory 4000 MB (current use 241 MB)
XC library pyscf.dft.libxc version 7.0.0
    S. Lehtola, C. Steigemann, M. J.T. Oliveira, and M. A.L. Marques.,  SoftwareX 7, 1–5 (2018)
XC functionals = b3lyp
    P. J. Stephens, F. J. Devlin, C. F. Chabalowski, and M. J. Frisch.,  J. Phys. Chem. 98, 11623 (1994)
radial grids: 
    Treutler-Ahlrichs [JCP 102, 346 (1995); DOI:10.1063/1.469408] (M4) radial grids
    
becke partition: Becke, JCP 88, 2547 (1988); DOI:10.1063/1.454033
pruning grids: <function nwchem_prune at 0x14dce4b92050>
grids dens level: 3
symmetrized grids: False
atomic radii adjust function: <function treutler_atomic_radii_adjust at 0x14dce4b90a60>
small_rho_cutoff = 0
Set gradient conv threshold to 3.16228e-05
tot grids = 221800
******** <class 'pyscf.df.df.DF'> ********
auxbasis = None
max_memory = 4000
init E= -675.587308812392
  HOMO = -0.240145154200819  LUMO = -0.108101744159789
cycle= 1 E= -675.585494402862  delta_E= 0.00181  |g|= 0.00615  |ddm|= 0.033
  HOMO = -0.240461521565898  LUMO = -0.108435324993853
cycle= 2 E= -675.585449292686  delta_E= 4.51e-05  |g|= 0.0161  |ddm|= 0.0199
  HOMO = -0.240451144396936  LUMO = -0.108411435263617
cycle= 3 E= -675.585501832175  delta_E= -5.25e-05  |g|= 0.00229  |ddm|= 0.0142
  HOMO = -0.240451690738008  LUMO = -0.10842282977081
cycle= 4 E= -675.58550286712  delta_E= -1.03e-06  |g|= 0.00077  |ddm|= 0.0029
  HOMO = -0.240457786394404  LUMO = -0.108421972164077
cycle= 5 E= -675.585502967122  delta_E= -1e-07  |g|= 0.000351  |ddm|= 0.000892
  HOMO = -0.240450019701779  LUMO = -0.108416270554123
cycle= 6 E= -675.585502991277  delta_E= -2.42e-08  |g|= 0.000113  |ddm|= 0.000412
  HOMO = -0.240452123390144  LUMO = -0.108418240599331
cycle= 7 E= -675.585502993621  delta_E= -2.34e-09  |g|= 5.65e-05  |ddm|= 0.000159
  HOMO = -0.240453094818784  LUMO = -0.108419051050123
cycle= 8 E= -675.585502994375  delta_E= -7.54e-10  |g|= 1.11e-05  |ddm|= 6.41e-05
  HOMO = -0.240451617682143  LUMO = -0.108418224764657
Extra cycle  E= -675.585502994261  delta_E= 1.14e-10  |g|= 2.5e-05  |ddm|= 3.2e-05
converged SCF energy = -675.585502994261


******** <class 'pyscf.grad.rhf.Gradients_Scanner'> for <class 'pyscf.scf.hf.DFRKS_Scanner'> ********
unit = Eh/Bohr
max_memory 4000 MB (current use 434 MB)
grid_response = False
--------------- DFRKS_Scanner gradients ---------------
         x                y                z
0 C     0.0004092612    -0.0001222240     0.0000040564
1 C    -0.0000113963     0.0000972255    -0.0000017769
2 C    -0.0003311717     0.0005370672    -0.0000176427
3 C    -0.0005443335    -0.0000566185     0.0000000485
4 C    -0.0000178187     0.0000248202     0.0000008311
5 C     0.0005672907     0.0002223870    -0.0000022355
6 N     0.0004389811     0.0007929072     0.0000072181
7 N     0.0001062608    -0.0001410602     0.0000009331
8 N     0.0000000335    -0.0003811310     0.0000011118
9 N    -0.0000368600    -0.0004252219     0.0000015759
10 O    -0.0007319855     0.0003895321    -0.0000034718
11 O     0.0000425553    -0.0008010259     0.0000132766
12 O    -0.0000859009    -0.0001916025    -0.0000033356
13 H     0.0000845201     0.0000547366     0.0000000838
14 H     0.0000594875    -0.0000215674     0.0000009875
15 H    -0.0001084258     0.0000108019    -0.0000011659
16 H     0.0000801525    -0.0000909526     0.0000009342
----------------------------------------------
cycle 9: E = -675.585502994  dE = -8.06651e-06  norm(grad) = 0.00196425

Geometry optimization cycle 10
Cartesian coordinates (Angstrom)
 Atom        New coordinates             dX        dY        dZ
   C  -2.996146   1.491261   0.069892   -0.000645  0.000198 -0.000073
   C  -3.090541   0.078096   0.101444   -0.000198  0.000199 -0.000005
   C  -1.798482   2.176878   0.058318   -0.000012 -0.000501 -0.000066
   C  -0.590480   1.408872   0.079678    0.001531  0.001321 -0.000030
   C  -1.954458  -0.726673   0.123187    0.000537  0.001282  0.000031
   C  -0.694614  -0.024104   0.111664    0.000742  0.001312  0.000029
   N  -1.788919   3.630107   0.025331   -0.000714 -0.000306 -0.000163
   N  -1.953601  -2.080567   0.153476    0.001082  0.001519  0.000091
   N   0.697708   1.723758   0.077057    0.001734  0.001392 -0.000008
   N   0.515148  -0.547465   0.127728    0.001229  0.001898  0.000072
   O   1.351211   0.517970   0.106573    0.002322  0.001233 -0.000004
   O  -2.873762   4.210783   0.008941    0.000474  0.002349 -0.000178
   O  -0.692510   4.179043   0.016135   -0.000143 -0.001009  0.000008
   H  -3.906492   2.091051   0.053378   -0.000773  0.000113 -0.000117
   H  -4.079387  -0.383779   0.108586   -0.000051 -0.000284  0.000011
   H  -2.817685  -2.603586   0.162295    0.001961  0.000268  0.000122
   H  -1.077354  -2.584243   0.167623    0.001499  0.002517  0.000106
New geometry
   1 C     -2.996146303687   1.491261430127   0.069892126648 AA   -5.661895943096   2.818075683068   0.132076977628 Bohr
   2 C     -3.090541360127   0.078095804397   0.101443842258 AA   -5.840276747281   0.147579681788   0.191701078892 Bohr
   3 C     -1.798482379769   2.176877912680   0.058318017795 AA   -3.398639137620   4.113703061579   0.110205081759 Bohr
   4 C     -0.590480178514   1.408871745305   0.079677521301 AA   -1.115845819375   2.662381743265   0.150568693543 Bohr
   5 C     -1.954458038477  -0.726672910978   0.123186971547 AA   -3.693390414676  -1.373212783889   0.232789638339 Bohr
   6 C     -0.694613989571  -0.024103761751   0.111664070786 AA   -1.312630202581  -0.045549508282   0.211014511740 Bohr
   7 N     -1.788918655525   3.630107052707   0.025331015656 AA   -3.380566318067   6.859908132468   0.047868682047 Bohr
   8 N     -1.953600857573  -2.080566722290   0.153475840171 AA   -3.691770577528  -3.931701289012   0.290027304662 Bohr
   9 N      0.697707625379   1.723758335793   0.077057353522 AA    1.318476326986   3.257431159585   0.145617294041 Bohr
  10 N      0.515148228713  -0.547464583812   0.127727738713 AA    0.973489065822  -1.034558126305   0.241370444677 Bohr
  11 O      1.351211112394   0.517969695772   0.106572668658 AA    2.553418938893   0.978820865833   0.201393156129 Bohr
  12 O     -2.873762161826   4.210782714981   0.008940589522 AA   -5.430623432989   7.957226101366   0.016895265589 Bohr
  13 O     -0.692509931570   4.179043443675   0.016135433209 AA   -1.308654109209   7.897247571205   0.030491549666 Bohr
  14 H     -3.906491806739   2.091051238356   0.053378332459 AA   -7.382199622595   3.951514152926   0.100870429334 Bohr
  15 H     -4.079387047043  -0.383779422088   0.108585952274 AA   -7.708924275009  -0.725237999991   0.205197710773 Bohr
  16 H     -2.817684562180  -2.603586488145   0.162295353326 AA   -5.324652127935  -4.920065404213   0.306693769076 Bohr
  17 H     -1.077353954357  -2.584242714104   0.167622575868 AA   -2.035903912952  -4.883510969060   0.316760760684 Bohr


******** <class 'pyscf.scf.hf.DFRKS_Scanner'> ********
method = DFRKS_Scanner
initial guess = minao
damping factor = 0
level_shift factor = 0
DIIS = <class 'pyscf.scf.diis.CDIIS'>
diis_start_cycle = 1
diis_space = 8
diis_damp = 0
SCF conv_tol = 1e-09
SCF conv_tol_grad = None
SCF max_cycles = 50
direct_scf = False
chkfile to save SCF result = /tmp/tmpzdfzyc95
max_memory 4000 MB (current use 241 MB)
XC library pyscf.dft.libxc version 7.0.0
    S. Lehtola, C. Steigemann, M. J.T. Oliveira, and M. A.L. Marques.,  SoftwareX 7, 1–5 (2018)
XC functionals = b3lyp
    P. J. Stephens, F. J. Devlin, C. F. Chabalowski, and M. J. Frisch.,  J. Phys. Chem. 98, 11623 (1994)
radial grids: 
    Treutler-Ahlrichs [JCP 102, 346 (1995); DOI:10.1063/1.469408] (M4) radial grids
    
becke partition: Becke, JCP 88, 2547 (1988); DOI:10.1063/1.454033
pruning grids: <function nwchem_prune at 0x14dce4b92050>
grids dens level: 3
symmetrized grids: False
atomic radii adjust function: <function treutler_atomic_radii_adjust at 0x14dce4b90a60>
small_rho_cutoff = 0
Set gradient conv threshold to 3.16228e-05
tot grids = 221800
******** <class 'pyscf.df.df.DF'> ********
auxbasis = None
max_memory = 4000
init E= -675.584218171091
  HOMO = -0.240585341448921  LUMO = -0.108680784339234
cycle= 1 E= -675.585506836204  delta_E= -0.00129  |g|= 0.00232  |ddm|= 0.0135
  HOMO = -0.240523671798104  LUMO = -0.108521928672487
cycle= 2 E= -675.585500184684  delta_E= 6.65e-06  |g|= 0.00597  |ddm|= 0.00787
  HOMO = -0.240477392549054  LUMO = -0.108516657615443
cycle= 3 E= -675.585507958128  delta_E= -7.77e-06  |g|= 0.00101  |ddm|= 0.0056
  HOMO = -0.240462639235536  LUMO = -0.108516354177161
cycle= 4 E= -675.58550816409  delta_E= -2.06e-07  |g|= 0.000256  |ddm|= 0.00116
  HOMO = -0.240466354172158  LUMO = -0.10852024949663
cycle= 5 E= -675.58550817489  delta_E= -1.08e-08  |g|= 0.000114  |ddm|= 0.000293
  HOMO = -0.240468175319262  LUMO = -0.108520227031697
cycle= 6 E= -675.585508177534  delta_E= -2.64e-09  |g|= 3.98e-05  |ddm|= 0.00014
  HOMO = -0.240466579349286  LUMO = -0.108519682120001
cycle= 7 E= -675.585508177815  delta_E= -2.81e-10  |g|= 2.14e-05  |ddm|= 5.6e-05
  HOMO = -0.240466922179106  LUMO = -0.108519030980952
Extra cycle  E= -675.585508177248  delta_E= 5.67e-10  |g|= 5.44e-05  |ddm|= 6.9e-05
converged SCF energy = -675.585508177248


******** <class 'pyscf.grad.rhf.Gradients_Scanner'> for <class 'pyscf.scf.hf.DFRKS_Scanner'> ********
unit = Eh/Bohr
max_memory 4000 MB (current use 432 MB)
grid_response = False
--------------- DFRKS_Scanner gradients ---------------
         x                y                z
0 C     0.0000183997     0.0000252165     0.0000009105
1 C    -0.0000384563    -0.0000296927     0.0000002443
2 C    -0.0000488010    -0.0001039984     0.0000048573
3 C    -0.0001800366     0.0001135735    -0.0000023719
4 C     0.0000077923     0.0000294007    -0.0000010087
5 C    -0.0001132102    -0.0000506778    -0.0000007064
6 N     0.0001042658     0.0001457727    -0.0000176374
7 N    -0.0000475520     0.0000518649    -0.0000037294
8 N     0.0001155854    -0.0005176403     0.0000144018
9 N    -0.0000930965     0.0000365141     0.0000003206
10 O     0.0003209206     0.0003706376    -0.0000123342
11 O     0.0000141983    -0.0000853516     0.0000104072
12 O    -0.0000964007    -0.0000718829     0.0000075161
13 H    -0.0000101195     0.0000027222     0.0000016314
14 H    -0.0000166644    -0.0000022705     0.0000003697
15 H     0.0000121657    -0.0000262268     0.0000001028
16 H    -0.0000295887     0.0000102868    -0.0000016010
----------------------------------------------
cycle 10: E = -675.585508177  dE = -5.18299e-06  norm(grad) = 0.000819722

Geometry optimization cycle 11
Cartesian coordinates (Angstrom)
 Atom        New coordinates             dX        dY        dZ
   C  -2.995548   1.491847   0.069843    0.000598  0.000586 -0.000049
   C  -3.089156   0.078625   0.101459    0.001386  0.000530  0.000015
   C  -1.798156   2.178099   0.058262    0.000327  0.001221 -0.000056
   C  -0.589830   1.410492   0.079665    0.000650  0.001620 -0.000012
   C  -1.952913  -0.725910   0.123254    0.001545  0.000763  0.000067
   C  -0.693494  -0.022597   0.111710    0.001120  0.001507  0.000046
   N  -1.789043   3.631359   0.025207   -0.000124  0.001252 -0.000124
   N  -1.951505  -2.079864   0.153601    0.002096  0.000703  0.000125
   N   0.698063   1.726298   0.077031    0.000355  0.002540 -0.000026
   N   0.516330  -0.545666   0.127807    0.001182  0.001799  0.000079
   O   1.351578   0.520208   0.106655    0.000367  0.002238  0.000083
   O  -2.873564   4.212731   0.008564    0.000198  0.001948 -0.000377
   O  -0.692435   4.180383   0.015901    0.000075  0.001339 -0.000235
   H  -3.906242   2.091097   0.053288    0.000250  0.000045 -0.000090
   H  -4.077823  -0.383619   0.108606    0.001564  0.000160  0.000020
   H  -2.815698  -2.602705   0.162410    0.001986  0.000882  0.000115
   H  -1.075205  -2.583481   0.167776    0.002149  0.000762  0.000153
New geometry
   1 C     -2.995548461522   1.491847134172   0.069842846751 AA   -5.660766185138   2.819182503303   0.131983852119 Bohr
   2 C     -3.089155555806   0.078625338309   0.101458603968 AA   -5.837657956652   0.148580355856   0.191728974480 Bohr
   3 C     -1.798155824139   2.178098991746   0.058261520200 AA   -3.398022036914   4.116010566592   0.110098316778 Bohr
   4 C     -0.589830220215   1.410491765625   0.079665051836 AA   -1.114617576198   2.665443137985   0.150545129669 Bohr
   5 C     -1.952913412967  -0.725910268710   0.123254003642 AA   -3.690471495497  -1.371771598870   0.232916310639 Bohr
   6 C     -0.693494212260  -0.022596770410   0.111709798480 AA   -1.310514130143  -0.042701707375   0.211100924557 Bohr
   7 N     -1.789043082750   3.631358734387   0.025206907626 AA   -3.380801451445   6.862273468038   0.047634151860 Bohr
   8 N     -1.951504608535  -2.079864115796   0.153601253949 AA   -3.687809240957  -3.930373555165   0.290264302354 Bohr
   9 N      0.698063016115   1.726297853279   0.077031273522 AA    1.319147918145   3.262230152121   0.145568009982 Bohr
  10 N      0.516330049811  -0.545665760986   0.127806840810 AA    0.975722384025  -1.031158843817   0.241519925977 Bohr
  11 O      1.351577917281   0.520207573683   0.106655451586 AA    2.554112099671   0.983049842185   0.201549593190 Bohr
  12 O     -2.873564200067   4.212731202290   0.008563589784 AA   -5.430249339482   7.960908208737   0.016182839335 Bohr
  13 O     -0.692435073162   4.180382724983   0.015900571086 AA   -1.308512647320   7.899778446080   0.030047724577 Bohr
  14 H     -3.906242081432   2.091096502399   0.053288039433 AA   -7.381727710158   3.951599689571   0.100699800244 Bohr
  15 H     -4.077823485874  -0.383619356883   0.108606106055 AA   -7.705969572621  -0.724935520591   0.205235795900 Bohr
  16 H     -2.815698352823  -2.602704776485   0.162409866363 AA   -5.320898736225  -4.918399210653   0.306910167353 Bohr
  17 H     -1.075204653130  -2.583480581884   0.167776062568 AA   -2.031842322274  -4.882070747893   0.317050808512 Bohr


******** <class 'pyscf.scf.hf.DFRKS_Scanner'> ********
method = DFRKS_Scanner
initial guess = minao
damping factor = 0
level_shift factor = 0
DIIS = <class 'pyscf.scf.diis.CDIIS'>
diis_start_cycle = 1
diis_space = 8
diis_damp = 0
SCF conv_tol = 1e-09
SCF conv_tol_grad = None
SCF max_cycles = 50
direct_scf = False
chkfile to save SCF result = /tmp/tmpzdfzyc95
max_memory 4000 MB (current use 232 MB)
XC library pyscf.dft.libxc version 7.0.0
    S. Lehtola, C. Steigemann, M. J.T. Oliveira, and M. A.L. Marques.,  SoftwareX 7, 1–5 (2018)
XC functionals = b3lyp
    P. J. Stephens, F. J. Devlin, C. F. Chabalowski, and M. J. Frisch.,  J. Phys. Chem. 98, 11623 (1994)
radial grids: 
    Treutler-Ahlrichs [JCP 102, 346 (1995); DOI:10.1063/1.469408] (M4) radial grids
    
becke partition: Becke, JCP 88, 2547 (1988); DOI:10.1063/1.454033
pruning grids: <function nwchem_prune at 0x14dce4b92050>
grids dens level: 3
symmetrized grids: False
atomic radii adjust function: <function treutler_atomic_radii_adjust at 0x14dce4b90a60>
small_rho_cutoff = 0
Set gradient conv threshold to 3.16228e-05
tot grids = 221800
******** <class 'pyscf.df.df.DF'> ********
auxbasis = None
max_memory = 4000
init E= -675.585107753453
  HOMO = -0.240506563478477  LUMO = -0.108554785118527
cycle= 1 E= -675.585508125808  delta_E= -0.0004  |g|= 0.00137  |ddm|= 0.00453
  HOMO = -0.240536827099106  LUMO = -0.108546965098536
cycle= 2 E= -675.585506070539  delta_E= 2.06e-06  |g|= 0.00345  |ddm|= 0.00413
  HOMO = -0.240501440185713  LUMO = -0.108540365413543
cycle= 3 E= -675.585508460768  delta_E= -2.39e-06  |g|= 0.000563  |ddm|= 0.00304
  HOMO = -0.240496110434052  LUMO = -0.108536138479781
cycle= 4 E= -675.58550852343  delta_E= -6.27e-08  |g|= 0.000167  |ddm|= 0.000641
  HOMO = -0.240497403002363  LUMO = -0.10853567438437
cycle= 5 E= -675.585508527657  delta_E= -4.23e-09  |g|= 6.96e-05  |ddm|= 0.000155
  HOMO = -0.240496693092577  LUMO = -0.108536094919094
cycle= 6 E= -675.585508528606  delta_E= -9.49e-10  |g|= 2.02e-05  |ddm|= 7.49e-05
  HOMO = -0.240497518121214  LUMO = -0.108536182679793
Extra cycle  E= -675.585508528141  delta_E= 4.65e-10  |g|= 4.92e-05  |ddm|= 6.89e-05
converged SCF energy = -675.585508528141


******** <class 'pyscf.grad.rhf.Gradients_Scanner'> for <class 'pyscf.scf.hf.DFRKS_Scanner'> ********
unit = Eh/Bohr
max_memory 4000 MB (current use 432 MB)
grid_response = False
--------------- DFRKS_Scanner gradients ---------------
         x                y                z
0 C    -0.0000692478    -0.0000244059    -0.0000005734
1 C     0.0000591624     0.0000253099     0.0000003025
2 C     0.0000786067    -0.0000809333    -0.0000026845
3 C     0.0000264915    -0.0000096855    -0.0000001270
4 C    -0.0000520845    -0.0000620127     0.0000017323
5 C     0.0000249876     0.0000105173    -0.0000000690
6 N    -0.0001250304    -0.0001458812     0.0000312901
7 N     0.0000216292    -0.0000504495    -0.0000013675
8 N     0.0001641768    -0.0001162407    -0.0000006129
9 N    -0.0000726921    -0.0001972017    -0.0000000917
10 O    -0.0001682483     0.0002859235    -0.0000040955
11 O     0.0000063240     0.0001822591    -0.0000117957
12 O     0.0000553983     0.0000802889    -0.0000105970
13 H    -0.0000025164    -0.0000075551     0.0000015836
14 H    -0.0000015939    -0.0000023208     0.0000005316
15 H    -0.0000100558     0.0000216798    -0.0000010591
16 H    -0.0000152382    -0.0000116705    -0.0000011181
----------------------------------------------
cycle 11: E = -675.585508528  dE = -3.50893e-07  norm(grad) = 0.000556799

--- Optimization Complete ---
Optimized coordinates successfully saved to 'nbd_opt.xyz'
